 &FCI NORB=10 ,NELEC=14 ,MS2=0,
  ORBSYM=1,1,1,1,1,1,1,1,1,1,
  ISYM=1,
 &END
  2.302648564233e+00    1  1  1  1
 -4.129669444407e-11    2  1  1  1
  1.829516157886e+00    2  1  2  1
  2.301981850096e+00    2  2  1  1
  4.131140698624e-11    2  2  2  1
  2.301316859935e+00    2  2  2  2
 -1.904135895819e-01    3  1  1  1
  2.221191281543e-12    3  1  2  1
 -1.902523422431e-01    3  1  2  2
  3.042677122021e-02    3  1  3  1
  2.294992321183e-12    3  2  1  1
 -1.967858751187e-01    3  2  2  1
 -6.588520527762e-12    3  2  2  2
  3.018431121038e-02    3  2  3  2
  7.785941297098e-01    3  3  1  1
  7.786906836138e-01    3  3  2  2
  1.656936634304e-03    3  3  3  1
  7.389858545508e-01    3  3  3  3
 -6.368689213151e-12    4  1  1  1
  1.858239263500e-01    4  1  2  1
  2.022364263901e-12    4  1  2  2
 -2.606135738296e-02    4  1  3  2
  2.893398204556e-02    4  1  4  1
  1.923197354620e-01    4  2  1  1
  2.096535076622e-12    4  2  2  1
  1.922493499539e-01    4  2  2  2
 -2.588922337038e-02    4  2  3  1
  1.773892361553e-02    4  2  3  3
  2.910421775043e-02    4  2  4  2
  3.987574159758e-12    4  3  1  1
 -1.767654379018e-01    4  3  2  1
 -3.993722019757e-12    4  3  2  2
  8.234566491499e-03    4  3  3  2
 -4.942088254565e-03    4  3  4  1
  5.934036782449e-02    4  3  4  3
  6.655140200236e-01    4  4  1  1
  6.654387325350e-01    4  4  2  2
 -1.237549706101e-02    4  4  3  1
  5.100288885025e-01    4  4  3  3
  5.099487218393e-03    4  4  4  2
  5.430330178260e-01    4  4  4  4
  9.773203852567e-03    5  1  5  1
  9.308950614173e-03    5  2  5  2
  1.642660116040e-02    5  3  5  1
  1.035765419126e-01    5  3  5  3
 -1.141067652203e-02    5  4  5  2
  5.154356157773e-02    5  4  5  4
  6.845955197720e-01    5  5  1  1
  6.846405985512e-01    5  5  2  2
 -1.687552747985e-03    5  5  3  1
  6.121977246732e-01    5  5  3  3
  7.610942521186e-03    5  5  4  2
  5.086673879974e-01    5  5  4  4
  5.846714884540e-01    5  5  5  5
  9.773203852567e-03    6  1  6  1
  9.308950614173e-03    6  2  6  2
  1.642660116040e-02    6  3  6  1
  1.035765419126e-01    6  3  6  3
 -1.141067652203e-02    6  4  6  2
  5.154356157773e-02    6  4  6  4
  2.373377497715e-02    6  5  6  5
  6.845955197720e-01    6  6  1  1
  6.846405985512e-01    6  6  2  2
 -1.687552747985e-03    6  6  3  1
  6.121977246732e-01    6  6  3  3
  7.610942521186e-03    6  6  4  2
  5.086673879974e-01    6  6  4  4
  5.372039384998e-01    6  6  5  5
  5.846714884540e-01    6  6  6  6
 -8.351141048613e-02    7  1  1  1
 -8.356701262575e-02    7  1  2  2
  6.697876313838e-03    7  1  3  1
 -2.488232950349e-02    7  1  3  3
 -1.518852286608e-02    7  1  4  2
  4.073993873940e-03    7  1  4  4
 -8.755288174714e-03    7  1  5  5
 -8.755288174714e-03    7  1  6  6
  1.421227694800e-02    7  1  7  1
 -6.910388408335e-02    7  2  2  1
 -2.512078219052e-12    7  2  2  2
  7.116514674912e-03    7  2  3  2
 -1.479280437336e-02    7  2  4  1
 -7.257718621221e-04    7  2  4  3
  1.331167786042e-02    7  2  7  2
 -6.344908363848e-02    7  3  1  1
 -6.352015584165e-02    7  3  2  2
 -7.131126471584e-03    7  3  3  1
 -1.087252507575e-01    7  3  3  3
 -4.618637976924e-03    7  3  4  2
  1.823986147051e-03    7  3  4  4
 -4.668997205823e-02    7  3  5  5
 -4.668997205823e-02    7  3  6  6
  1.236091384635e-02    7  3  7  1
  5.294897287053e-02    7  3  7  3
  5.679387515833e-12    7  4  1  1
 -2.515150195537e-01    7  4  2  1
 -5.677291969874e-12    7  4  2  2
  1.347224917091e-02    7  4  3  2
  2.111064507356e-03    7  4  4  1
  9.501220026392e-02    7  4  4  3
 -1.467762113419e-02    7  4  7  2
  2.209026167309e-01    7  4  7  4
  4.839348077849e-03    7  5  5  1
  1.348373042916e-02    7  5  5  3
  2.797624851288e-02    7  5  7  5
  4.839348077849e-03    7  6  6  1
  1.348373042916e-02    7  6  6  3
  2.797624851288e-02    7  6  7  6
  6.829041113498e-01    7  7  1  1
  6.828339788849e-01    7  7  2  2
 -8.821284774860e-03    7  7  3  1
  5.404141486631e-01    7  7  3  3
  3.792558336683e-03    7  7  4  2
  5.546634678961e-01    7  7  4  4
  5.162091800046e-01    7  7  5  5
  5.162091800046e-01    7  7  6  6
  2.687674846022e-03    7  7  7  1
 -1.564103813501e-02    7  7  7  3
  5.829461905973e-01    7  7  7  7
 -5.186268473489e-03    8  1  5  2
  6.222198890954e-03    8  1  5  4
  1.002514524059e-02    8  1  6  2
 -1.202761637129e-02    8  1  6  4
  1.370195401164e-02    8  1  8  1
 -5.437138872030e-03    8  2  5  1
 -8.559632906415e-03    8  2  5  3
  1.051008199132e-02    8  2  6  1
  1.654591611128e-02    8  2  6  3
 -2.823760228238e-03    8  2  7  5
  5.458376587597e-03    8  2  7  6
  1.435751380772e-02    8  2  8  2
 -5.292628507594e-03    8  3  5  2
  2.007433050243e-02    8  3  5  4
  1.023074099699e-02    8  3  6  2
 -3.880402256904e-02    8  3  6  4
  1.346991556520e-02    8  3  8  1
  4.487930231177e-02    8  3  8  3
  7.170593543672e-03    8  4  5  1
  3.408334295509e-02    8  4  5  3
 -1.386087937869e-02    8  4  6  1
 -6.588368210328e-02    8  4  6  3
  1.696852472655e-02    8  4  7  5
 -3.280044713684e-02    8  4  7  6
 -1.846338140460e-02    8  4  8  2
  8.235351157481e-02    8  4  8  4
  2.883207561588e-12    8  5  1  1
 -1.276882168377e-01    8  5  2  1
 -2.882305505381e-12    8  5  2  2
  3.950280536283e-03    8  5  3  2
 -1.330440553582e-03    8  5  4  1
  4.578686138379e-02    8  5  4  3
 -1.648128824680e-03    8  5  7  2
  7.215970647571e-02    8  5  7  4
  5.503699244788e-02    8  5  8  5
 -5.572459160774e-12    8  6  1  1
  2.468234966726e-01    8  6  2  1
  5.572355077366e-12    8  6  2  2
 -7.635959518822e-03    8  6  3  2
  2.571764237006e-03    8  6  4  1
 -8.850678244476e-02    8  6  4  3
  3.185861072768e-03    8  6  7  2
 -1.394859409294e-01    8  6  7  4
 -6.959350734404e-02    8  6  8  5
  1.535598946969e-01    8  6  8  6
 -3.199972298479e-03    8  7  5  2
  1.785030052588e-02    8  7  5  4
  6.185600923303e-03    8  7  6  2
 -3.450493476665e-02    8  7  6  4
  8.475955846156e-03    8  7  8  1
  2.488470255166e-02    8  7  8  3
  3.757913260461e-02    8  7  8  7
  7.238684163293e-01    8  8  1  1
  7.238942327688e-01    8  8  2  2
 -5.884530519070e-03    8  8  3  1
  5.921647532544e-01    8  8  3  3
  7.699398461941e-03    8  8  4  2
  5.338567948693e-01    8  8  4  4
  5.484890594906e-01    8  8  5  5
 -1.859141285358e-02    8  8  6  5
  5.748087554097e-01    8  8  6  6
 -5.337256828386e-03    8  8  7  1
 -2.900701259653e-02    8  8  7  3
  5.382215722085e-01    8  8  7  7
  6.018373818027e-01    8  8  8  8
  1.002514524059e-02    9  1  5  2
 -1.202761637129e-02    9  1  5  4
  5.186268473489e-03    9  1  6  2
 -6.222198890954e-03    9  1  6  4
  1.370195401164e-02    9  1  9  1
  1.051008199132e-02    9  2  5  1
  1.654591611128e-02    9  2  5  3
  5.437138872030e-03    9  2  6  1
  8.559632906415e-03    9  2  6  3
  5.458376587597e-03    9  2  7  5
  2.823760228238e-03    9  2  7  6
  1.435751380772e-02    9  2  9  2
  1.023074099699e-02    9  3  5  2
 -3.880402256904e-02    9  3  5  4
  5.292628507594e-03    9  3  6  2
 -2.007433050243e-02    9  3  6  4
  1.346991556520e-02    9  3  9  1
  4.487930231177e-02    9  3  9  3
 -1.386087937869e-02    9  4  5  1
 -6.588368210328e-02    9  4  5  3
 -7.170593543672e-03    9  4  6  1
 -3.408334295509e-02    9  4  6  3
 -3.280044713684e-02    9  4  7  5
 -1.696852472655e-02    9  4  7  6
 -1.846338140460e-02    9  4  9  2
  8.235351157481e-02    9  4  9  4
 -5.573042027862e-12    9  5  1  1
  2.468234966726e-01    9  5  2  1
  5.571820782535e-12    9  5  2  2
 -7.635959518822e-03    9  5  3  2
  2.571764237006e-03    9  5  4  1
 -8.850678244476e-02    9  5  4  3
  3.185861072768e-03    9  5  7  2
 -1.394859409294e-01    9  5  7  4
 -6.959350734404e-02    9  5  8  5
  1.154909739546e-01    9  5  8  6
  1.535598946969e-01    9  5  9  5
 -2.882909189150e-12    9  6  1  1
  1.276882168377e-01    9  6  2  1
  2.882617755606e-12    9  6  2  2
 -3.950280536283e-03    9  6  3  2
  1.330440553582e-03    9  6  4  1
 -4.578686138379e-02    9  6  4  3
  1.648128824680e-03    9  6  7  2
 -7.215970647571e-02    9  6  7  4
 -1.696807170553e-02    9  6  8  5
  6.959350734404e-02    9  6  8  6
  6.959350734404e-02    9  6  9  5
  5.503699244788e-02    9  6  9  6
  6.185600923303e-03    9  7  5  2
 -3.450493476665e-02    9  7  5  4
  3.199972298479e-03    9  7  6  2
 -1.785030052588e-02    9  7  6  4
  8.475955846156e-03    9  7  9  1
  2.488470255166e-02    9  7  9  3
  3.757913260461e-02    9  7  9  7
 -1.859141285358e-02    9  8  5  5
  1.315984795959e-02    9  8  6  5
  1.859141285358e-02    9  8  6  6
  2.493668551257e-02    9  8  9  8
  7.238684163293e-01    9  9  1  1
  7.238942327688e-01    9  9  2  2
 -5.884530519070e-03    9  9  3  1
  5.921647532544e-01    9  9  3  3
  7.699398461941e-03    9  9  4  2
  5.338567948693e-01    9  9  4  4
  5.748087554097e-01    9  9  5  5
  1.859141285358e-02    9  9  6  5
  5.484890594906e-01    9  9  6  6
 -5.337256828386e-03    9  9  7  1
 -2.900701259653e-02    9  9  7  3
  5.382215722085e-01    9  9  7  7
  5.519640107775e-01    9  9  8  8
  6.018373818027e-01    9  9  9  9
 -4.808475883092e-12    10  1  1  1
  1.479452819626e-01    10  1  2  1
  1.874129974475e-12    10  1  2  2
 -2.693967622430e-02    10  1  3  2
  1.487844206769e-02    10  1  4  1
 -8.160121017012e-03    10  1  4  3
  4.952157077137e-03    10  1  7  2
 -2.596529442816e-02    10  1  7  4
 -4.486769431560e-03    10  1  8  5
  8.673001685577e-03    10  1  8  6
  8.673001685577e-03    10  1  9  5
  4.486769431560e-03    10  1  9  6
  3.524796158267e-02    10  1  10  1
  1.300998753698e-01    10  2  1  1
  1.672949972997e-12    10  2  2  1
  1.298601624031e-01    10  2  2  2
 -2.737034330925e-02    10  2  3  1
 -2.160818085057e-02    10  2  3  3
  1.437833325679e-02    10  2  4  2
  1.597245951468e-02    10  2  4  4
 -6.200825381253e-03    10  2  5  5
 -6.200825381253e-03    10  2  6  6
  5.992459954249e-03    10  2  7  1
  1.688569487950e-02    10  2  7  3
  1.193363069763e-02    10  2  7  7
  2.727833105815e-04    10  2  8  8
  2.727833105816e-04    10  2  9  9
  3.630875692690e-02    10  2  10  2
  5.064101915586e-12    10  3  1  1
 -2.242890400593e-01    10  3  2  1
 -5.063137409334e-12    10  3  2  2
  4.687635795841e-03    10  3  3  2
 -1.137574216510e-02    10  3  4  1
  6.013388722760e-02    10  3  4  3
  1.114245392528e-02    10  3  7  2
  5.447140800501e-02    10  3  7  4
  4.677291735839e-02    10  3  8  5
 -9.041284542843e-02    10  3  8  6
 -9.041284542843e-02    10  3  9  5
 -4.677291735839e-02    10  3  9  6
  6.362381892662e-03    10  3  10  1
  1.064624047099e-01    10  3  10  3
  5.057419352044e-02    10  4  1  1
  5.065727846941e-02    10  4  2  2
  2.752657135227e-03    10  4  3  1
  7.439784263729e-02    10  4  3  3
  7.476394881211e-03    10  4  4  2
 -1.906078795750e-02    10  4  4  4
  4.200136616003e-02    10  4  5  5
  4.200136616003e-02    10  4  6  6
 -1.238143991188e-02    10  4  7  1
 -3.129640066141e-02    10  4  7  3
 -2.660638366128e-02    10  4  7  7
  2.909713869874e-02    10  4  8  8
  2.909713869874e-02    10  4  9  9
 -1.381360710941e-02    10  4  10  2
  4.853936227628e-02    10  4  10  4
 -8.477024948628e-03    10  5  5  2
  2.363996100010e-02    10  5  5  4
  4.460913095502e-03    10  5  8  1
  1.551971338004e-02    10  5  8  3
  1.704799888106e-03    10  5  8  7
 -8.623020947847e-03    10  5  9  1
 -2.999987014219e-02    10  5  9  3
 -3.295407203034e-03    10  5  9  7
  3.498440534515e-02    10  5  10  5
 -8.477024948628e-03    10  6  6  2
  2.363996100010e-02    10  6  6  4
 -8.623020947847e-03    10  6  8  1
 -2.999987014219e-02    10  6  8  3
 -3.295407203034e-03    10  6  8  7
 -4.460913095502e-03    10  6  9  1
 -1.551971338004e-02    10  6  9  3
 -1.704799888106e-03    10  6  9  7
  3.498440534515e-02    10  6  10  6
 -4.437727962880e-12    10  7  1  1
  1.964414742396e-01    10  7  2  1
  4.432398892362e-12    10  7  2  2
 -6.626705158582e-03    10  7  3  2
  1.791123410040e-03    10  7  4  1
 -5.775850977165e-02    10  7  4  3
  3.291206698370e-03    10  7  7  2
 -1.251488558507e-01    10  7  7  4
 -4.349836940038e-02    10  7  8  5
  8.408308848581e-02    10  7  8  6
  8.408308848581e-02    10  7  9  5
  4.349836940038e-02    10  7  9  6
  9.341325113993e-03    10  7  10  1
 -5.964270322719e-02    10  7  10  3
  9.412329647997e-02    10  7  10  7
  4.998375519990e-03    10  8  5  1
  2.776378056265e-02    10  8  5  3
 -9.661944963136e-03    10  8  6  1
 -5.366786042627e-02    10  8  6  3
 -5.467357458813e-04    10  8  7  5
  1.056849503395e-03    10  8  7  6
 -1.232900685887e-02    10  8  8  2
  3.546226885783e-02    10  8  8  4
  4.640409957765e-02    10  8  10  8
 -9.661944963136e-03    10  9  5  1
 -5.366786042627e-02    10  9  5  3
 -4.998375519990e-03    10  9  6  1
 -2.776378056265e-02    10  9  6  3
  1.056849503395e-03    10  9  7  5
  5.467357458813e-04    10  9  7  6
 -1.232900685887e-02    10  9  9  2
  3.546226885783e-02    10  9  9  4
  4.640409957765e-02    10  9  10  9
  8.887752203930e-01    10  10  1  1
  8.888556324758e-01    10  10  2  2
 -5.447615482426e-03    10  10  3  1
  7.186666759084e-01    10  10  3  3
  2.061082970638e-02    10  10  4  2
  5.571385630239e-01    10  10  4  4
  6.163480518178e-01    10  10  5  5
  6.163480518178e-01    10  10  6  6
 -2.272921627823e-02    10  10  7  1
 -8.784258209905e-02    10  10  7  3
  5.920797629329e-01    10  10  7  7
  6.178556272337e-01    10  10  8  8
  6.178556272337e-01    10  10  9  9
 -1.376436580756e-02    10  10  10  2
  4.726215192567e-02    10  10  10  4
  7.565160318096e-01    10  10  10  10
 -2.748675071229e+01    1  1  0  0
 -2.748584875646e+01    2  2  0  0
  4.618912648913e-01    3  1  0  0
  5.205125439134e-12    3  2  0  0
 -9.443853116265e+00    3  3  0  0
  5.639368589152e-12    4  1  0  0
 -4.989355234222e-01    4  2  0  0
 -7.653327683575e+00    4  4  0  0
 -8.003032271566e+00    5  5  0  0
 -8.003032271566e+00    6  6  0  0
  2.601503349577e-01    7  1  0  0
  2.958557698215e-12    7  2  0  0
  6.972107359026e-01    7  3  0  0
 -7.745645627373e+00    7  7  0  0
 -7.798189861212e+00    8  8  0  0
 -7.798189861212e+00    9  9  0  0
  2.613428149774e-12    10  1  0  0
 -2.314059609003e-01    10  2  0  0
 -4.354688099127e-01    10  4  0  0
 -8.296118187910e+00    10  10  0  0
     23.135033106369   0  0  0  0
