 &FCI NORB=   8,NELEC=10,MS2=0,
  ORBSYM=1,1,1,1,1,1,1,1,
  ISYM=1,
 &END
 0.8187268626931763    1    1    1    1
 0.5198770300342345    1    1    2    2
 -0.1430565014908818    1    1    3    1
 0.5676334720965516    1    1    3    3
 0.6327381636695626    1    1    4    4
 0.6327381636695643    1    1    5    5
 0.5300190291206854    1    1    6    6
 0.5300190291206863    1    1    7    7
 -1.85788884277116e-15    1    1    8    1
 -0.09869662228173876    1    1    8    2
 3.912668800065688e-15    1    1    8    3
 0.3723271072911341    1    1    8    8
 0.05406307389056782    2    1    2    1
 1.230515255662423e-15    2    1    2    2
 0.09148481001121696    2    1    3    2
 -1.413420162160728e-15    2    1    3    3
 -0.06750643453619246    2    1    6    4
 -0.04381537430078151    2    1    6    5
 0.04381537430078149    2    1    7    4
 -0.06750643453619261    2    1    7    5
 -0.03251897968982211    2    1    8    1
 0.00674857440887126    2    1    8    3
 -3.40168431617327e-15    2    1    8    8
 0.5198770300342344    2    2    1    1
 1.284779574395323e-15    2    2    2    1
 0.5360401161058095    2    2    2    2
 -0.005544242917340269    2    2    3    1
 2.18325791473406e-15    2    2    3    2
 0.5403158518976663    2    2    3    3
 0.4925242251718659    2    2    4    4
 0.4925242251718669    2    2    5    5
 -1.512624660943152e-15    2    2    6    4
 -1.297573160030652e-15    2    2    6    5
 0.4787158683275037    2    2    6    6
 -1.830133267155531e-15    2    2    7    5
 0.4787158683275045    2    2    7    7
 -1.175275154974287e-15    2    2    8    1
 -0.05354625384078161    2    2    8    2
 1.889113865338743e-15    2    2    8    3
 0.3674828765612881    2    2    8    8
 -0.1430565014908817    3    1    1    1
 -0.005544242917340274    3    1    2    2
 0.06661801787017971    3    1    3    1
 -0.03298380314312747    3    1    3    3
 -0.06200542752214924    3    1    4    4
 -0.06200542752214946    3    1    5    5
 -0.02573327108909965    3    1    6    6
 -0.02573327108909976    3    1    7    7
 0.01722238204602164    3    1    8    2
 -1.066909147834361e-15    3    1    8    3
 -0.008829387289214459    3    1    8    8
 0.09148481001121697    3    2    2    1
 2.20049672927658e-15    3    2    2    2
 0.2085784475269098    3    2    3    2
 -3.230705633572306e-15    3    2    3    3
 -0.111781417045805    3    2    6    4
 -0.07255226351952949    3    2    6    5
 -1.104205702567862e-15    3    2    6    6
 0.07255226351952949    3    2    7    4
 -0.1117814170458052    3    2    7    5
 -0.03823293012472369    3    2    8    1
 0.02227250572896403    3    2    8    3
 -4.649058915617843e-15    3    2    8    8
 0.5676334720965515    3    3    1    1
 -1.438953123322761e-15    3    3    2    1
 0.5403158518976662    3    3    2    2
 -0.03298380314312745    3    3    3    1
 -3.232982458134526e-15    3    3    3    2
 0.5625553604740988    3    3    3    3
 0.5040276555227254    3    3    4    4
 0.5040276555227264    3    3    5    5
 1.490127465864077e-15    3    3    6    4
 0.4808819816536329    3    3    6    6
 -1.073360150760649e-15    3    3    7    4
 1.112825109839122e-15    3    3    7    5
 0.4808819816536336    3    3    7    7
 -0.05285374252984675    3    3    8    2
 2.818058286724323e-15    3    3    8    3
 0.3739648905960076    3    3    8    8
 0.100603557399413    4    1    4    1
 0.01106418247482377    4    1    4    3
 -0.05342310622980872    4    1    6    2
 0.03467452268590076    4    1    7    2
 0.02711719352814393    4    1    8    6
 -0.01760054419383311    4    1    8    7
 0.04157940247801865    4    2    4    2
 -0.02815672444230729    4    2    6    1
 -0.02841520224323559    4    2    6    3
 0.01827525670700665    4    2    7    1
 0.01844302296031165    4    2    7    3
 -0.01964090954647317    4    2    8    4
 0.01106418247482376    4    3    4    1
 0.02357278178448345    4    3    4    3
 -0.02759071103775339    4    3    6    2
 0.01790788299885307    4    3    7    2
 0.004443123098319737    4    3    8    6
 -0.002883830303805401    4    3    8    7
 0.6327381636695627    4    4    1    1
 0.4925242251718661    4    4    2    2
 -0.06200542752214918    4    4    3    1
 0.5040276555227254    4    4    3    3
 0.5754267745571143    4    4    4    4
 0.5289982657124112    4    4    5    5
 0.4970665889837968    4    4    6    6
 -0.01631970880641996    4    4    7    6
 0.4825151661682801    4    4    7    7
 -0.07931606067665022    4    4    8    2
 3.263120406792009e-15    4    4    8    3
 0.3505474410282512    4    4    8    8
 0.1006035573994133    5    1    5    1
 0.01106418247482369    5    1    5    3
 -0.0346745226859008    5    1    6    2
 -0.05342310622980883    5    1    7    2
 0.01760054419383303    5    1    8    6
 0.0271171935281439    5    1    8    7
 0.04157940247801869    5    2    5    2
 -0.01827525670700666    5    2    6    1
 -0.01844302296031166    5    2    6    3
 -0.02815672444230735    5    2    7    1
 -0.02841520224323562    5    2    7    3
 -0.01964090954647324    5    2    8    5
 0.01106418247482371    5    3    5    1
 0.02357278178448345    5    3    5    3
 -0.01790788299885305    5    3    6    2
 -0.02759071103775341    5    3    7    2
 0.002883830303805396    5    3    8    6
 0.004443123098319758    5    3    8    7
 0.02321425442235213    5    4    5    4
 0.01631970880642019    5    4    6    6
 0.007275711407758814    5    4    7    6
 -0.01631970880642011    5    4    7    7
 0.632738163669564    5    5    1    1
 0.4925242251718671    5    5    2    2
 -0.06200542752214942    5    5    3    1
 0.5040276555227264    5    5    3    3
 0.5289982657124112    5    5    4    4
 0.5754267745571167    5    5    5    5
 0.4825151661682803    5    5    6    6
 0.01631970880642021    5    5    7    6
 0.4970665889837986    5    5    7    7
 -0.07931606067665035    5    5    8    2
 3.215204414243377e-15    5    5    8    3
 0.3505474410282531    5    5    8    8
 -0.02815672444230729    6    1    4    2
 -0.01827525670700666    6    1    5    2
 0.03149090896246306    6    1    6    1
 0.02188156486687681    6    1    6    3
 0.01633987822195605    6    1    8    4
 0.01060547613339515    6    1    8    5
 -0.0534231062298087    6    2    4    1
 -0.0275907110377534    6    2    4    3
 -0.03467452268590079    6    2    5    1
 -0.01790788299885305    6    2    5    3
 0.07181770735219418    6    2    6    2
 -0.02112639498156099    6    2    8    6
 -0.02841520224323559    6    3    4    2
 -0.01844302296031166    6    3    5    2
 0.02188156486687682    6    3    6    1
 0.03583172403393399    6    3    6    3
 0.008335858655518986    6    3    8    4
 0.005410428940876123    6    3    8    5
 -0.0675064345361925    6    4    2    1
 -1.513470498570492e-15    6    4    2    2
 -0.111781417045805    6    4    3    2
 1.453704428330203e-15    6    4    3    3
 0.1005846545294312    6    4    6    4
 0.05641441480069816    6    4    6    5
 -0.0564144148006981    6    4    7    4
 0.07325094817466407    6    4    7    5
 0.04128930065726449    6    4    8    1
 -0.007981982680831725    6    4    8    3
 2.431937546447696e-15    6    4    8    8
 -0.04381537430078152    6    5    2    1
 -1.238316803386656e-15    6    5    2    2
 -0.07255226351952952    6    5    3    2
 0.05641441480069817    6    5    6    4
 0.05028289900227333    6    5    6    5
 -0.02294919264750601    6    5    7    4
 0.05641441480069827    6    5    7    5
 0.02679901812834783    6    5    8    1
 -0.005180744046487682    6    5    8    3
 3.922678512790279e-15    6    5    8    8
 0.5300190291206854    6    6    1    1
 0.4787158683275039    6    6    2    2
 -0.02573327108909961    6    6    3    1
 -1.100583171036132e-15    6    6    3    2
 0.4808819816536328    6    6    3    3
 0.4970665889837969    6    6    4    4
 0.01631970880642019    6    6    5    4
 0.4825151661682803    6    6    5    5
 0.4791192098472692    6    6    6    6
 0.4426304795598586    6    6    7    7
 -0.05967902271398036    6    6    8    2
 2.345363422884693e-15    6    6    8    3
 0.344520718206169    6    6    8    8
 0.01827525670700665    7    1    4    2
 -0.02815672444230735    7    1    5    2
 0.03149090896246316    7    1    7    1
 0.02188156486687683    7    1    7    3
 -0.01060547613339514    7    1    8    4
 0.01633987822195609    7    1    8    5
 0.03467452268590075    7    2    4    1
 0.01790788299885307    7    2    4    3
 -0.05342310622980882    7    2    5    1
 -0.02759071103775342    7    2    5    3
 0.0718177073521943    7    2    7    2
 -0.02112639498156109    7    2    8    7
 0.01844302296031165    7    3    4    2
 -0.02841520224323562    7    3    5    2
 0.02188156486687683    7    3    7    1
 0.03583172403393399    7    3    7    3
 -0.005410428940876108    7    3    8    4
 0.008335858655519031    7    3    8    5
 0.04381537430078148    7    4    2    1
 0.07255226351952949    7    4    3    2
 -1.066726651642266e-15    7    4    3    3
 -0.05641441480069813    7    4    6    4
 -0.02294919264750601    7    4    6    5
 0.05028289900227327    7    4    7    4
 -0.05641441480069825    7    4    7    5
 -0.02679901812834773    7    4    8    1
 0.005180744046487823    7    4    8    3
 -3.01242068351325e-15    7    4    8    8
 -0.06750643453619259    7    5    2    1
 -1.791530088871384e-15    7    5    2    2
 -0.1117814170458052    7    5    3    2
 1.115583669917321e-15    7    5    3    3
 0.07325094817466409    7    5    6    4
 0.05641441480069827    7    5    6    5
 -0.05641441480069823    7    5    7    4
 0.1005846545294316    7    5    7    5
 0.04128930065726452    7    5    8    1
 -0.007981982680831681    7    5    8    3
 3.891671624574008e-15    7    5    8    8
 -0.01631970880642    7    6    4    4
 0.007275711407758816    7    6    5    4
 0.01631970880642031    7    6    5    5
 0.01824436514370568    7    6    7    6
 -1.12498306838153e-15    7    6    8    8
 0.5300190291206864    7    7    1    1
 0.4787158683275047    7    7    2    2
 -0.02573327108909971    7    7    3    1
 0.4808819816536336    7    7    3    3
 0.4825151661682803    7    7    4    4
 -0.01631970880642012    7    7    5    4
 0.4970665889837987    7    7    5    5
 0.4426304795598586    7    7    6    6
 0.4791192098472706    7    7    7    7
 -0.05967902271398101    7    7    8    2
 2.491912989876633e-15    7    7    8    3
 0.3445207182061723    7    7    8    8
 -1.502487370630412e-15    8    1    1    1
 -0.03251897968982201    8    1    2    1
 -1.0809953057472e-15    8    1    2    2
 -0.03823293012472372    8    1    3    2
 0.04128930065726451    8    1    6    4
 0.02679901812834785    8    1    6    5
 -0.02679901812834782    8    1    7    4
 0.04128930065726463    8    1    7    5
 0.02730633678063421    8    1    8    1
 0.0009788395756266418    8    1    8    3
 -1.425590331546878e-15    8    1    8    8
 -0.09869662228173845    8    2    1    1
 -0.05354625384078192    8    2    2    2
 0.01722238204602177    8    2    3    1
 -0.05285374252984699    8    2    3    3
 -0.07931606067664984    8    2    4    4
 -0.07931606067665002    8    2    5    5
 -0.05967902271398041    8    2    6    6
 -0.05967902271398055    8    2    7    7
 0.0344128431230156    8    2    8    2
 -2.024801767225304e-15    8    2    8    3
 -0.001773281412658672    8    2    8    8
 4.110279892594222e-15    8    3    1    1
 0.006748574408871444    8    3    2    1
 2.070555098904192e-15    8    3    2    2
 -1.008362230520143e-15    8    3    3    1
 0.02227250572896402    8    3    3    2
 2.382696904362769e-15    8    3    3    3
 3.004140837324252e-15    8    3    4    4
 2.956429588987786e-15    8    3    5    5
 -0.007981982680831733    8    3    6    4
 -0.005180744046487793    8    3    6    5
 2.278322116470305e-15    8    3    6    6
 0.005180744046487805    8    3    7    4
 -0.00798198268083173    8    3    7    5
 2.316601229422621e-15    8    3    7    7
 0.0009788395756271339    8    3    8    1
 0.02332952270310178    8    3    8    3
 -0.0196409095464732    8    4    4    2
 0.01633987822195602    8    4    6    1
 0.008335858655518988    8    4    6    3
 -0.01060547613339515    8    4    7    1
 -0.005410428940876095    8    4    7    3
 0.01428771170996602    8    4    8    4
 -0.01964090954647325    8    5    5    2
 0.01060547613339516    8    5    6    1
 0.005410428940876109    8    5    6    3
 0.01633987822195607    8    5    7    1
 0.008335858655519002    8    5    7    3
 0.01428771170996604    8    5    8    5
 0.0271171935281438    8    6    4    1
 0.004443123098319785    8    6    4    3
 0.01760054419383303    8    6    5    1
 0.002883830303805424    8    6    5    3
 -0.02112639498156095    8    6    6    2
 0.01760708962074011    8    6    8    6
 -0.017600544193833    8    7    4    1
 -0.002883830303805431    8    7    4    3
 0.0271171935281439    8    7    5    1
 0.004443123098319792    8    7    5    3
 -0.02112639498156102    8    7    7    2
 0.01760708962074014    8    7    8    7
 0.3723271072911307    8    8    1    1
 -3.638365650426856e-15    8    8    2    1
 0.3674828765612914    8    8    2    2
 -0.008829387289216128    8    8    3    1
 -7.606274551180681e-15    8    8    3    2
 0.373964890596012    8    8    3    3
 0.3505474410282498    8    8    4    4
 0.3505474410282504    8    8    5    5
 4.243784143542761e-15    8    8    6    4
 2.643718577388654e-15    8    8    6    5
 0.3445207182061702    8    8    6    6
 -2.814534629663745e-15    8    8    7    4
 4.139483894549656e-15    8    8    7    5
 0.3445207182061707    8    8    7    7
 9.404369644139265e-15    8    8    8    1
 -0.001773281412655121    8    8    8    2
 4.397524011601206e-15    8    8    8    3
 0.3491284124602392    8    8    8    8
 -6.673784554052971    1    1  0  0
 3.148433153747162e-15    2    1  0  0
 -5.054923392919521    2    2  0  0
 0.5487636522439718    3    1  0  0
 5.268663021003847e-15    3    2  0  0
 -5.098422415861156    3    3  0  0
 -5.311056840618465    4    4  0  0
 -1.944900995059561e-15    5    1  0  0
 1.200819484377595e-15    5    2  0  0
 -5.311056840618477    5    5  0  0
 -1.158570475972643e-15    6    4  0  0
 2.818978042457425e-15    6    5  0  0
 -4.472901212911854    6    6  0  0
 1.903915604254918e-15    7    4  0  0
 3.239244114142646e-15    7    5  0  0
 -1.680515921881618e-15    7    6  0  0
 -4.472901212911862    7    7  0  0
 2.268319055559639e-15    8    1  0  0
 0.6243830258514519    8    2  0  0
 -2.290432043935676e-14    8    3  0  0
 1.405329090151001e-15    8    4  0  0
 3.430258697811227e-15    8    5  0  0
 -1.285866795610943e-15    8    6  0  0
 -2.921581714925436    8    8  0  0
 -77.41742268592165  0  0  0  0
