 &FCI NORB=10 ,NELEC=10 ,MS2=0,
  ORBSYM=1,1,1,1,1,1,1,1,1,1,
  ISYM=1,
 &END
  3.164498170102e-01    1  1  1  1
  1.152938945581e-01    2  1  2  1
  3.159919134588e-01    2  2  1  1
  3.502582295152e-01    2  2  2  2
  1.152938945581e-01    3  1  3  1
  3.399025916234e-02    3  2  3  2
  3.159919134588e-01    3  3  1  1
  2.822777111905e-01    3  3  2  2
  3.502582295152e-01    3  3  3  3
 -3.583629098384e-03    4  1  2  2
 -4.752599105301e-02    4  1  3  2
  3.583629098384e-03    4  1  3  3
  6.686580336525e-02    4  1  4  1
 -6.294682910690e-03    4  2  2  1
 -8.347991253612e-02    4  2  3  1
  8.447434926339e-02    4  2  4  2
 -8.347991253612e-02    4  3  2  1
  6.294682910690e-03    4  3  3  1
  8.447434926339e-02    4  3  4  3
  3.166963444480e-01    4  4  1  1
  3.177177558864e-01    4  4  2  2
  3.177177558864e-01    4  4  3  3
  3.383164094839e-01    4  4  4  4
  4.752599105301e-02    5  1  2  2
 -3.583629098384e-03    5  1  3  2
 -4.752599105301e-02    5  1  3  3
  6.686580336525e-02    5  1  5  1
  8.347991253612e-02    5  2  2  1
 -6.294682910690e-03    5  2  3  1
 -3.758779169053e-02    5  2  4  3
  8.447434926339e-02    5  2  5  2
 -6.294682910690e-03    5  3  2  1
 -8.347991253612e-02    5  3  3  1
  3.758779169053e-02    5  3  4  2
  8.447434926339e-02    5  3  5  3
  1.824495374478e-02    5  4  5  4
  3.166963444480e-01    5  5  1  1
  3.177177558864e-01    5  5  2  2
  3.177177558864e-01    5  5  3  3
  3.018265019943e-01    5  5  4  4
  3.383164094839e-01    5  5  5  5
 -9.302371625253e-03    6  1  4  2
  3.112436049412e-02    6  1  4  3
  3.112436049412e-02    6  1  5  2
  9.302371625253e-03    6  1  5  3
  4.516861597661e-02    6  1  6  1
  3.405053291936e-02    6  2  2  2
  7.441697941793e-03    6  2  3  2
 -3.405053291936e-02    6  2  3  3
 -1.402815041537e-02    6  2  4  1
 -1.680767632473e-02    6  2  4  4
  4.693611781843e-02    6  2  5  1
 -6.435836052325e-03    6  2  5  4
  1.680767632472e-02    6  2  5  5
  5.390066989023e-02    6  2  6  2
  7.441697941793e-03    6  3  2  2
 -3.405053291936e-02    6  3  3  2
 -7.441697941794e-03    6  3  3  3
  4.693611781843e-02    6  3  4  1
  6.435836052325e-03    6  3  4  4
  1.402815041537e-02    6  3  5  1
 -1.680767632473e-02    6  3  5  4
 -6.435836052325e-03    6  3  5  5
  5.390066989023e-02    6  3  6  3
 -2.461346333411e-02    6  4  2  1
  8.235301025169e-02    6  4  3  1
 -5.877249473115e-02    6  4  4  2
  2.250460641721e-02    6  4  4  3
 -2.250460641721e-02    6  4  5  2
 -5.877249473115e-02    6  4  5  3
  7.719184104525e-02    6  4  6  4
  8.235301025169e-02    6  5  2  1
  2.461346333411e-02    6  5  3  1
 -2.250460641721e-02    6  5  4  2
 -5.877249473115e-02    6  5  4  3
  5.877249473115e-02    6  5  5  2
 -2.250460641721e-02    6  5  5  3
  9.651104112583e-03    6  5  6  4
  8.466024386399e-02    6  5  6  5
  3.192306791797e-01    6  6  1  1
  3.208898930524e-01    6  6  2  2
  3.208898930524e-01    6  6  3  3
  3.199285988346e-01    6  6  4  4
  1.094965446778e-02    6  6  5  4
  3.284018708392e-01    6  6  5  5
  4.234726139039e-05    6  6  6  2
 -1.212775501338e-02    6  6  6  3
  3.453815098035e-01    6  6  6  6
  3.112436049412e-02    7  1  4  2
  9.302371625253e-03    7  1  4  3
  9.302371625253e-03    7  1  5  2
 -3.112436049412e-02    7  1  5  3
  4.516861597661e-02    7  1  7  1
  7.441697941793e-03    7  2  2  2
 -3.405053291936e-02    7  2  3  2
 -7.441697941793e-03    7  2  3  3
  4.693611781843e-02    7  2  4  1
 -6.435836052325e-03    7  2  4  4
  1.402815041537e-02    7  2  5  1
  1.680767632473e-02    7  2  5  4
  6.435836052325e-03    7  2  5  5
  1.832139040300e-02    7  2  6  3
  1.212775501338e-02    7  2  6  6
  5.390066989023e-02    7  2  7  2
 -3.405053291936e-02    7  3  2  2
 -7.441697941793e-03    7  3  3  2
  3.405053291936e-02    7  3  3  3
  1.402815041537e-02    7  3  4  1
 -1.680767632472e-02    7  3  4  4
 -4.693611781843e-02    7  3  5  1
 -6.435836052325e-03    7  3  5  4
  1.680767632472e-02    7  3  5  5
 -1.832139040300e-02    7  3  6  2
  4.234726139051e-05    7  3  6  6
  5.390066989023e-02    7  3  7  3
  8.235301025169e-02    7  4  2  1
  2.461346333411e-02    7  4  3  1
 -2.250460641721e-02    7  4  4  2
 -5.877249473115e-02    7  4  4  3
  5.877249473115e-02    7  4  5  2
 -2.250460641721e-02    7  4  5  3
 -9.651104112583e-03    7  4  6  4
  4.586714235231e-02    7  4  6  5
  8.466024386399e-02    7  4  7  4
  2.461346333411e-02    7  5  2  1
 -8.235301025169e-02    7  5  3  1
  5.877249473115e-02    7  5  4  2
 -2.250460641721e-02    7  5  4  3
  2.250460641721e-02    7  5  5  2
  5.877249473115e-02    7  5  5  3
 -5.333554517105e-02    7  5  6  4
  9.651104112583e-03    7  5  6  5
 -9.651104112583e-03    7  5  7  4
  7.719184104525e-02    7  5  7  5
 -1.094965446778e-02    7  6  4  4
 -4.236636002339e-03    7  6  5  4
  1.094965446778e-02    7  6  5  5
  1.212775501338e-02    7  6  6  2
  4.234726139050e-05    7  6  6  3
 -4.234726139037e-05    7  6  7  2
  1.212775501338e-02    7  6  7  3
  1.598161087087e-02    7  6  7  6
  3.192306791797e-01    7  7  1  1
  3.208898930524e-01    7  7  2  2
  3.208898930524e-01    7  7  3  3
  3.284018708392e-01    7  7  4  4
 -1.094965446778e-02    7  7  5  4
  3.199285988346e-01    7  7  5  5
 -4.234726139044e-05    7  7  6  2
  1.212775501338e-02    7  7  6  3
  3.134182880617e-01    7  7  6  6
 -1.212775501338e-02    7  7  7  2
 -4.234726139052e-05    7  7  7  3
  3.453815098035e-01    7  7  7  7
 -2.901928748327e-03    8  1  4  4
  2.403351621448e-02    8  1  5  4
  2.901928748327e-03    8  1  5  5
 -5.855585255448e-03    8  1  6  2
 -2.336812821350e-02    8  1  6  3
  1.822037294669e-02    8  1  6  6
  2.336812821350e-02    8  1  7  2
 -5.855585255448e-03    8  1  7  3
 -4.633336068999e-03    8  1  7  6
 -1.822037294669e-02    8  1  7  7
  3.335995046487e-02    8  1  8  1
  2.318475094108e-02    8  2  4  2
  1.041746975002e-03    8  2  4  3
  1.041746975002e-03    8  2  5  2
 -2.318475094108e-02    8  2  5  3
 -7.909010982373e-03    8  2  6  1
  8.991235945496e-03    8  2  6  4
  7.534129580078e-03    8  2  6  5
  3.156281987460e-02    8  2  7  1
 -7.534129580078e-03    8  2  7  4
  8.991235945496e-03    8  2  7  5
  3.069101604535e-02    8  2  8  2
  1.041746975002e-03    8  3  4  2
 -2.318475094108e-02    8  3  4  3
 -2.318475094108e-02    8  3  5  2
 -1.041746975002e-03    8  3  5  3
 -3.156281987460e-02    8  3  6  1
  1.270946134557e-02    8  3  6  4
  2.111051877616e-02    8  3  6  5
 -7.909010982373e-03    8  3  7  1
 -2.111051877616e-02    8  3  7  4
  1.270946134557e-02    8  3  7  5
  9.823310115195e-03    8  3  8  2
  4.756781529746e-02    8  3  8  3
  3.525197143650e-02    8  4  2  2
  1.583956398762e-03    8  4  3  2
 -3.525197143650e-02    8  4  3  3
 -5.960874560012e-03    8  4  4  1
  1.029106941157e-02    8  4  4  4
  4.936743380525e-02    8  4  5  1
 -8.080788020303e-03    8  4  5  4
 -1.029106941157e-02    8  4  5  5
  2.956372792995e-02    8  4  6  2
  1.776639698771e-02    8  4  6  3
 -1.381074538491e-02    8  4  6  6
 -5.233401732617e-03    8  4  7  2
 -4.333307679517e-02    8  4  7  3
 -8.202743511886e-03    8  4  7  6
  1.381074538491e-02    8  4  7  7
 -1.435087849613e-02    8  4  8  1
  5.475047477165e-02    8  4  8  4
  1.583956398762e-03    8  5  2  2
 -3.525197143650e-02    8  5  3  2
 -1.583956398762e-03    8  5  3  3
  4.936743380525e-02    8  5  4  1
 -8.080788020303e-03    8  5  4  4
  5.960874560012e-03    8  5  5  1
 -1.029106941157e-02    8  5  5  4
  8.080788020303e-03    8  5  5  5
  5.233401732617e-03    8  5  6  2
  4.333307679517e-02    8  5  6  3
 -8.202743511886e-03    8  5  6  6
  2.956372792995e-02    8  5  7  2
  1.776639698771e-02    8  5  7  3
  1.381074538491e-02    8  5  7  6
  8.202743511886e-03    8  5  7  7
 -1.433851853867e-02    8  5  8  1
  5.475047477165e-02    8  5  8  5
 -2.124844011744e-02    8  6  2  1
 -8.479703587942e-02    8  6  3  1
  5.385365975499e-02    8  6  4  2
  2.677106839069e-02    8  6  4  3
  4.984609043328e-03    8  6  5  2
  7.286491312974e-02    8  6  5  3
  2.583211468678e-02    8  6  6  1
 -5.771355470005e-02    8  6  6  4
 -3.427834437387e-02    8  6  6  5
 -6.568958224236e-03    8  6  7  1
 -3.427834437387e-02    8  6  7  4
  5.771355470005e-02    8  6  7  5
 -9.878412915148e-03    8  6  8  2
 -1.831931480716e-02    8  6  8  3
  9.115285359842e-02    8  6  8  6
  8.479703587942e-02    8  7  2  1
 -2.124844011744e-02    8  7  3  1
 -4.984609043328e-03    8  7  4  2
 -7.286491312974e-02    8  7  4  3
  5.385365975499e-02    8  7  5  2
  2.677106839069e-02    8  7  5  3
 -6.568958224236e-03    8  7  6  1
 -3.427834437387e-02    8  7  6  4
  5.771355470005e-02    8  7  6  5
 -2.583211468678e-02    8  7  7  1
  5.771355470005e-02    8  7  7  4
  3.427834437387e-02    8  7  7  5
 -1.831931480716e-02    8  7  8  2
  9.878412915148e-03    8  7  8  3
  9.115285359842e-02    8  7  8  7
  3.233075058308e-01    8  8  1  1
  3.048993705831e-01    8  8  2  2
  2.401148955457e-02    8  8  3  2
  3.461519712039e-01    8  8  3  3
 -3.171385358053e-02    8  8  4  1
  3.297504354940e-01    8  8  4  4
 -3.168653944215e-02    8  8  5  1
  3.297504354940e-01    8  8  5  5
 -1.609922782161e-02    8  8  6  2
 -2.985568887933e-02    8  8  6  3
  3.363587611225e-01    8  8  6  6
 -2.985568887933e-02    8  8  7  2
  1.609922782161e-02    8  8  7  3
  3.363587611225e-01    8  8  7  7
 -2.240834108994e-02    8  8  8  4
 -2.858821606808e-02    8  8  8  5
  3.816605746698e-01    8  8  8  8
  2.403351621448e-02    9  1  4  4
  2.901928748327e-03    9  1  5  4
 -2.403351621448e-02    9  1  5  5
 -2.336812821350e-02    9  1  6  2
  5.855585255448e-03    9  1  6  3
 -4.633336068999e-03    9  1  6  6
 -5.855585255448e-03    9  1  7  2
 -2.336812821350e-02    9  1  7  3
 -1.822037294669e-02    9  1  7  6
  4.633336068999e-03    9  1  7  7
  1.433851853867e-02    9  1  8  4
 -1.435087849613e-02    9  1  8  5
  3.335995046487e-02    9  1  9  1
  1.041746975002e-03    9  2  4  2
 -2.318475094108e-02    9  2  4  3
 -2.318475094108e-02    9  2  5  2
 -1.041746975002e-03    9  2  5  3
 -3.156281987460e-02    9  2  6  1
 -1.270946134557e-02    9  2  6  4
 -2.111051877616e-02    9  2  6  5
 -7.909010982373e-03    9  2  7  1
  2.111051877616e-02    9  2  7  4
 -1.270946134557e-02    9  2  7  5
 -9.823310115195e-03    9  2  8  2
  2.465338707746e-04    9  2  8  3
 -1.831931480716e-02    9  2  8  6
  9.878412915148e-03    9  2  8  7
  4.756781529746e-02    9  2  9  2
 -2.318475094108e-02    9  3  4  2
 -1.041746975002e-03    9  3  4  3
 -1.041746975002e-03    9  3  5  2
  2.318475094108e-02    9  3  5  3
  7.909010982373e-03    9  3  6  1
  8.991235945495e-03    9  3  6  4
  7.534129580078e-03    9  3  6  5
 -3.156281987460e-02    9  3  7  1
 -7.534129580078e-03    9  3  7  4
  8.991235945495e-03    9  3  7  5
 -1.712333312288e-02    9  3  8  2
  9.823310115195e-03    9  3  8  3
  9.878412915148e-03    9  3  8  6
  1.831931480716e-02    9  3  8  7
 -9.823310115195e-03    9  3  9  2
  3.069101604535e-02    9  3  9  3
  1.583956398762e-03    9  4  2  2
 -3.525197143650e-02    9  4  3  2
 -1.583956398762e-03    9  4  3  3
  4.936743380525e-02    9  4  4  1
  8.080788020303e-03    9  4  4  4
  5.960874560012e-03    9  4  5  1
  1.029106941157e-02    9  4  5  4
 -8.080788020303e-03    9  4  5  5
 -1.776639698771e-02    9  4  6  2
  2.956372792995e-02    9  4  6  3
  8.202743511886e-03    9  4  6  6
  4.333307679517e-02    9  4  7  2
 -5.233401732617e-03    9  4  7  3
 -1.381074538491e-02    9  4  7  6
 -8.202743511886e-03    9  4  7  7
  1.433851853867e-02    9  4  8  1
  2.211530148835e-02    9  4  8  5
 -2.858821606808e-02    9  4  8  8
  1.435087849613e-02    9  4  9  1
  5.475047477165e-02    9  4  9  4
 -3.525197143650e-02    9  5  2  2
 -1.583956398762e-03    9  5  3  2
  3.525197143650e-02    9  5  3  3
  5.960874560012e-03    9  5  4  1
  1.029106941157e-02    9  5  4  4
 -4.936743380525e-02    9  5  5  1
 -8.080788020303e-03    9  5  5  4
 -1.029106941157e-02    9  5  5  5
 -4.333307679517e-02    9  5  6  2
  5.233401732617e-03    9  5  6  3
 -1.381074538491e-02    9  5  6  6
 -1.776639698771e-02    9  5  7  2
  2.956372792995e-02    9  5  7  3
 -8.202743511886e-03    9  5  7  6
  1.381074538491e-02    9  5  7  7
 -1.435087849613e-02    9  5  8  1
 -2.211530148835e-02    9  5  8  4
  2.240834108994e-02    9  5  8  8
  1.433851853867e-02    9  5  9  1
  5.475047477165e-02    9  5  9  5
 -8.479703587942e-02    9  6  2  1
  2.124844011744e-02    9  6  3  1
 -2.677106839069e-02    9  6  4  2
  5.385365975499e-02    9  6  4  3
 -7.286491312974e-02    9  6  5  2
  4.984609043328e-03    9  6  5  3
 -6.568958224237e-03    9  6  6  1
  3.427834437387e-02    9  6  6  4
 -5.771355470005e-02    9  6  6  5
 -2.583211468678e-02    9  6  7  1
 -5.771355470005e-02    9  6  7  4
 -3.427834437387e-02    9  6  7  5
 -1.831931480716e-02    9  6  8  2
  9.878412915148e-03    9  6  8  3
 -4.825360523421e-02    9  6  8  7
  9.878412915148e-03    9  6  9  2
  1.831931480716e-02    9  6  9  3
  9.115285359841e-02    9  6  9  6
 -2.124844011744e-02    9  7  2  1
 -8.479703587942e-02    9  7  3  1
  7.286491312974e-02    9  7  4  2
 -4.984609043328e-03    9  7  4  3
 -2.677106839069e-02    9  7  5  2
  5.385365975499e-02    9  7  5  3
 -2.583211468678e-02    9  7  6  1
 -5.771355470005e-02    9  7  6  4
 -3.427834437387e-02    9  7  6  5
  6.568958224236e-03    9  7  7  1
 -3.427834437387e-02    9  7  7  4
  5.771355470005e-02    9  7  7  5
  9.878412915148e-03    9  7  8  2
  1.831931480716e-02    9  7  8  3
  4.825360523421e-02    9  7  8  6
  1.831931480716e-02    9  7  9  2
 -9.878412915148e-03    9  7  9  3
  9.115285359841e-02    9  7  9  7
 -2.401148955457e-02    9  8  2  2
 -2.062630031041e-02    9  8  3  2
  2.401148955457e-02    9  8  3  3
  3.168653944215e-02    9  8  4  1
 -3.171385358053e-02    9  8  5  1
 -2.985568887933e-02    9  8  6  2
  1.609922782161e-02    9  8  6  3
  1.609922782161e-02    9  8  7  2
  2.985568887933e-02    9  8  7  3
 -2.858821606808e-02    9  8  8  4
  2.240834108994e-02    9  8  8  5
  2.240834108994e-02    9  8  9  4
  2.858821606808e-02    9  8  9  5
  3.651043813741e-02    9  8  9  8
  3.233075058308e-01    9  9  1  1
  3.461519712039e-01    9  9  2  2
 -2.401148955457e-02    9  9  3  2
  3.048993705831e-01    9  9  3  3
  3.171385358053e-02    9  9  4  1
  3.297504354940e-01    9  9  4  4
  3.168653944215e-02    9  9  5  1
  3.297504354940e-01    9  9  5  5
  1.609922782161e-02    9  9  6  2
  2.985568887933e-02    9  9  6  3
  3.363587611225e-01    9  9  6  6
  2.985568887933e-02    9  9  7  2
 -1.609922782161e-02    9  9  7  3
  3.363587611225e-01    9  9  7  7
  2.240834108994e-02    9  9  8  4
  2.858821606808e-02    9  9  8  5
  3.086396983949e-01    9  9  8  8
  2.858821606808e-02    9  9  9  4
 -2.240834108994e-02    9  9  9  5
  3.816605746698e-01    9  9  9  9
 -1.549525408187e-02    10  1  6  4
 -2.261010784930e-02    10  1  6  5
  2.261010784930e-02    10  1  7  4
 -1.549525408187e-02    10  1  7  5
 -1.190722295612e-02    10  1  8  2
 -2.592579631287e-02    10  1  8  3
  2.592579631287e-02    10  1  9  2
 -1.190722295612e-02    10  1  9  3
  2.889256748359e-02    10  1  10  1
  2.126420344759e-02    10  2  4  4
 -6.820459760977e-03    10  2  5  4
 -2.126420344759e-02    10  2  5  5
 -1.755760353077e-02    10  2  6  2
  1.408437927045e-02    10  2  6  3
 -1.366555318264e-02    10  2  6  6
 -1.408437927045e-02    10  2  7  2
 -1.755760353077e-02    10  2  7  3
 -1.691415299683e-02    10  2  7  6
  1.366555318264e-02    10  2  7  7
 -1.354749093795e-02    10  2  8  1
  2.129017693253e-02    10  2  8  4
 -7.899253966897e-03    10  2  8  5
  2.949717930892e-02    10  2  9  1
  7.899253966897e-03    10  2  9  4
  2.129017693253e-02    10  2  9  5
  3.380119241878e-02    10  2  10  2
 -6.820459760977e-03    10  3  4  4
 -2.126420344759e-02    10  3  5  4
  6.820459760976e-03    10  3  5  5
  1.408437927045e-02    10  3  6  2
  1.755760353077e-02    10  3  6  3
 -1.691415299683e-02    10  3  6  6
 -1.755760353077e-02    10  3  7  2
  1.408437927045e-02    10  3  7  3
  1.366555318264e-02    10  3  7  6
  1.691415299683e-02    10  3  7  7
 -2.949717930892e-02    10  3  8  1
  7.899253966897e-03    10  3  8  4
  2.129017693253e-02    10  3  8  5
 -1.354749093795e-02    10  3  9  1
 -2.129017693253e-02    10  3  9  4
  7.899253966897e-03    10  3  9  5
  3.380119241878e-02    10  3  10  3
  2.889378966392e-02    10  4  4  2
 -9.267637521934e-03    10  4  4  3
 -9.267637521934e-03    10  4  5  2
 -2.889378966392e-02    10  4  5  3
 -2.437418191126e-02    10  4  6  1
  3.556591449487e-02    10  4  7  1
  3.063220216931e-02    10  4  8  2
  1.136540787178e-02    10  4  8  3
 -2.336903728220e-02    10  4  8  6
 -2.053644391216e-02    10  4  8  7
  1.136540787178e-02    10  4  9  2
 -3.063220216931e-02    10  4  9  3
 -2.053644391216e-02    10  4  9  6
  2.336903728220e-02    10  4  9  7
  4.679088954722e-02    10  4  10  4
 -9.267637521934e-03    10  5  4  2
 -2.889378966392e-02    10  5  4  3
 -2.889378966392e-02    10  5  5  2
  9.267637521934e-03    10  5  5  3
 -3.556591449487e-02    10  5  6  1
 -2.437418191126e-02    10  5  7  1
 -1.136540787178e-02    10  5  8  2
  3.063220216931e-02    10  5  8  3
 -2.053644391216e-02    10  5  8  6
  2.336903728220e-02    10  5  8  7
  3.063220216931e-02    10  5  9  2
  1.136540787178e-02    10  5  9  3
  2.336903728220e-02    10  5  9  6
  2.053644391216e-02    10  5  9  7
  4.679088954722e-02    10  5  10  5
 -3.694793190716e-02    10  6  2  2
  2.963893593606e-02    10  6  3  2
  3.694793190716e-02    10  6  3  3
 -3.785425578669e-02    10  6  4  1
 -5.523554511400e-02    10  6  5  1
 -3.164356970691e-02    10  6  6  2
 -3.916593585605e-02    10  6  6  3
 -3.916593585605e-02    10  6  7  2
  3.164356970691e-02    10  6  7  3
 -4.006369940378e-02    10  6  8  4
 -3.520752291948e-02    10  6  8  5
  5.154740855417e-02    10  6  8  8
 -3.520752291948e-02    10  6  9  4
  4.006369940378e-02    10  6  9  5
  9.647673127396e-03    10  6  9  8
 -5.154740855417e-02    10  6  9  9
  7.591585890696e-02    10  6  10  6
 -2.963893593606e-02    10  7  2  2
 -3.694793190716e-02    10  7  3  2
  2.963893593606e-02    10  7  3  3
  5.523554511400e-02    10  7  4  1
 -3.785425578669e-02    10  7  5  1
 -3.916593585605e-02    10  7  6  2
  3.164356970691e-02    10  7  6  3
  3.164356970691e-02    10  7  7  2
  3.916593585605e-02    10  7  7  3
 -3.520752291948e-02    10  7  8  4
  4.006369940378e-02    10  7  8  5
 -9.647673127396e-03    10  7  8  8
  4.006369940378e-02    10  7  9  4
  3.520752291948e-02    10  7  9  5
  5.154740855417e-02    10  7  9  8
  9.647673127395e-03    10  7  9  9
  7.591585890696e-02    10  7  10  7
 -5.139959532164e-02    10  8  2  1
 -1.119132012379e-01    10  8  3  1
  8.522634052154e-02    10  8  4  2
  3.162136747770e-02    10  8  4  3
 -3.162136747770e-02    10  8  5  2
  8.522634052154e-02    10  8  5  3
 -7.175573100719e-02    10  8  6  4
 -6.305811948563e-02    10  8  6  5
 -6.305811948563e-02    10  8  7  4
  7.175573100719e-02    10  8  7  5
  9.844302287976e-02    10  8  8  6
 -1.842471101954e-02    10  8  8  7
  1.842471101954e-02    10  8  9  6
  9.844302287976e-02    10  8  9  7
  1.453314315107e-01    10  8  10  8
  1.119132012379e-01    10  9  2  1
 -5.139959532164e-02    10  9  3  1
  3.162136747770e-02    10  9  4  2
 -8.522634052154e-02    10  9  4  3
  8.522634052154e-02    10  9  5  2
  3.162136747770e-02    10  9  5  3
 -6.305811948563e-02    10  9  6  4
  7.175573100719e-02    10  9  6  5
  7.175573100719e-02    10  9  7  4
  6.305811948563e-02    10  9  7  5
  1.842471101954e-02    10  9  8  6
  9.844302287976e-02    10  9  8  7
 -9.844302287976e-02    10  9  9  6
  1.842471101954e-02    10  9  9  7
  1.453314315107e-01    10  9  10  9
  3.258564099575e-01    10  10  1  1
  3.283554113782e-01    10  10  2  2
  3.283554113782e-01    10  10  3  3
  3.330994814087e-01    10  10  4  4
  3.330994814087e-01    10  10  5  5
  3.405141318117e-01    10  10  6  6
  3.405141318117e-01    10  10  7  7
  3.504258957392e-01    10  10  8  8
  3.504258957392e-01    10  10  9  9
  3.563971143066e-01    10  10  10  10
 -3.207371709707e+00    1  1  0  0
 -3.118811575478e+00    2  2  0  0
 -3.118811575478e+00    3  3  0  0
 -2.920921849276e+00    4  4  0  0
 -2.920921849276e+00    5  5  0  0
 -2.609106882865e+00    6  6  0  0
 -2.609106882865e+00    7  7  0  0
 -2.196168929635e+00    8  8  0  0
 -2.196168929635e+00    9  9  0  0
 -1.948421409153e+00    10  10  0  0
     12.632123172553   0  0  0  0
