 &FCI NORB=  12,NELEC=12,MS2=0,
  ORBSYM=1,1,1,1,1,1,1,1,1,1,1,1,
  ISYM=1,
 &END
 0.4193777741356169    1    1    1    1
 2.086832946123611e-09    1    1    2    1
 0.2380759422403469    1    1    2    2
 2.517199380133622e-12    1    1    3    1
 1.186197261982921e-10    1    1    3    2
 0.3470100600914181    1    1    3    3
 5.493450455714987e-14    1    1    4    1
 -8.590379890352066e-11    1    1    4    2
 -1.099450200533177e-10    1    1    4    3
 0.3470100488054833    1    1    4    4
 -2.734699832777733e-06    1    1    5    1
 -4.462415407315452e-09    1    1    5    2
 2.05772860981882e-07    1    1    5    3
 -1.961059917390746e-09    1    1    5    4
 0.4214762649467118    1    1    5    5
 -1.575397066902467e-09    1    1    6    1
 -6.727032598129247e-07    1    1    6    2
 -1.443800845463744e-08    1    1    6    3
 9.235517670197061e-09    1    1    6    4
 -9.204443549147945e-10    1    1    6    5
 0.1978452310429477    1    1    6    6
 -9.199082993393057e-09    1    1    7    1
 6.948414643386805e-09    1    1    7    2
 8.271889320901784e-07    1    1    7    3
 9.720740523668344e-07    1    1    7    4
 1.456120344582548e-10    1    1    7    5
 2.335933649010854e-10    1    1    7    6
 0.3401632292901859    1    1    7    7
 -8.161621005081596e-11    1    1    8    1
 4.626059547021461e-09    1    1    8    2
 -9.707751524595126e-07    1    1    8    3
 1.789020327121523e-06    1    1    8    4
 4.100234715360042e-12    1    1    8    5
 1.687855731498159e-10    1    1    8    6
 -1.150254709677319e-10    1    1    8    7
 0.3401632071414174    1    1    8    8
 5.224766611064829e-10    1    1    9    1
 -0.02569409324711246    1    1    9    2
 2.319488074324682e-09    1    1    9    3
 -1.671164402357443e-09    1    1    9    4
 -5.758701965957648e-09    1    1    9    5
 -5.257163821269993e-07    1    1    9    6
 9.009885540361015e-08    1    1    9    7
 5.942775402140212e-08    1    1    9    8
 0.1617546958552162    1    1    9    9
 2.485095364492878e-10    1    1   10    1
 -1.064913966716364e-09    1    1   10    2
 -0.05451439490640762    1    1   10    3
 -8.808419142858157e-05    1    1   10    4
 1.681071381355288e-07    1    1   10    5
 4.868028706258564e-09    1    1   10    6
 -3.788828014292506e-06    1    1   10    7
 -2.452688634806828e-06    1    1   10    8
 -1.018857100509513e-09    1    1   10    9
 0.1858334756749016    1    1   10   10
 2.732586568943272e-12    1    1   11    1
 -7.70169155482768e-10    1    1   11    2
 -8.808418443296622e-05    1    1   11    3
 0.05451440405624353    1    1   11    4
 1.870802335842058e-09    1    1   11    5
 3.077983427077919e-09    1    1   11    6
 -2.494985372691335e-06    1    1   11    7
 -1.045742677332819e-05    1    1   11    8
 -7.398077809305419e-10    1    1   11    9
 2.182339579025395e-10    1    1   11   10
 0.1858334831537623    1    1   11   11
 1.000360647395317e-08    1    1   12    1
 4.38421026624237e-09    1    1   12    2
 -7.790576427891037e-07    1    1   12    3
 -1.895476162287124e-08    1    1   12    4
 5.236096394181217e-10    1    1   12    5
 -1.95970363413676e-10    1    1   12    6
 -0.09340146938313253    1    1   12    7
 0.0007631233593083497    1    1   12    8
 -4.768893489257808e-08    1    1   12    9
 1.588251299192194e-06    1    1   12   10
 1.489907620469645e-06    1    1   12   11
 0.1950072361430786    1    1   12   12
 2.086832946123619e-09    2    1    1    1
 0.005065664960875496    2    1    2    1
 2.976044610670029e-10    2    1    2    2
 3.109060278498595e-11    2    1    3    1
 3.157397550421303e-11    2    1    3    2
 0.002742199777528472    2    1    3    3
 -2.249335522269034e-11    2    1    4    1
 -3.092362507751904e-13    2    1    4    2
 -0.00202279737402468    2    1    4    3
 -0.002742197608158324    2    1    4    4
 -7.411648070936957e-09    2    1    5    1
 -2.36288408689582e-08    2    1    5    2
 -5.163819537693789e-09    2    1    5    3
 3.809583132992489e-09    2    1    5    4
 2.286948377783068e-09    2    1    5    5
 -3.174573745102913e-08    2    1    6    1
 -1.810020035740501e-09    2    1    6    2
 9.496069968508434e-09    2    1    6    3
 -6.525506689815166e-11    2    1    6    4
 0.003983037277822497    2    1    6    5
 2.523319050400312e-10    2    1    6    6
 -1.083820998172416e-09    2    1    7    1
 8.676089583723082e-10    2    1    7    2
 3.052857099072126e-08    2    1    7    3
 7.774738347692742e-09    2    1    7    4
 -3.042956842725936e-11    2    1    7    5
 -7.071330226204094e-12    2    1    7    6
 0.002033016449359183    2    1    7    7
 -7.760090630107671e-10    2    1    8    1
 -8.027335372255646e-13    2    1    8    2
 5.559483101959959e-08    2    1    8    3
 3.448261979599637e-08    2    1    8    4
 -2.206298516567855e-11    2    1    8    5
 -5.938148825147943e-14    2    1    8    6
 0.001491181251271255    2    1    8    7
 -0.002033013782559955    2    1    8    8
 -0.0005711776328166795    2    1    9    1
 9.172736828326701e-11    2    1    9    2
 -4.909784156716376e-11    2    1    9    3
 5.427294665715766e-13    2    1    9    4
 -9.961959472584327e-09    2    1    9    5
 -5.392974885903147e-10    2    1    9    6
 1.086272515892531e-09    2    1    9    7
 7.456340326111223e-11    2    1    9    8
 4.452384389201546e-12    2    1    9    9
 -3.581361674527268e-11    2    1   10    1
 2.081857206253717e-11    2    1   10    2
 0.0005354345021483682    2    1   10    3
 -0.0003963040889396428    2    1   10    4
 -2.056428125196735e-09    2    1   10    5
 1.140946505100233e-10    2    1   10    6
 5.66573945716295e-09    2    1   10    7
 1.615897718974705e-07    2    1   10    8
 -1.813770227824632e-10    2    1   10    9
 0.002570893163420168    2    1   10   10
 -2.58945712647129e-11    2    1   11    1
 2.317797741742462e-13    2    1   11    2
 0.0003963037723038974    2    1   11    3
 0.0005354353925714477    2    1   11    4
 -1.483235476542183e-09    2    1   11    5
 -1.065533390257935e-11    2    1   11    6
 -1.419649273665277e-07    2    1   11    7
 -2.092351650277775e-08    2    1   11    8
 -2.321505535777153e-12    2    1   11    9
 0.001909292191553162    2    1   11   10
 -0.002570892513349502    2    1   11   11
 7.423740101011537e-10    2    1   12    1
 -4.908340037659687e-10    2    1   12    2
 -1.251988130742097e-08    2    1   12    3
 2.636263460999851e-09    2    1   12    4
 6.477351630273958e-12    2    1   12    5
 -8.269806710431249e-12    2    1   12    6
 9.601124658287422e-05    2    1   12    7
 7.163693863346451e-05    2    1   12    8
 -3.490852270465955e-10    2    1   12    9
 -1.433182293003766e-08    2    1   12   10
 -2.349203806860455e-08    2    1   12   11
 0.002112417606324583    2    1   12   12
 0.238075942240347    2    2    1    1
 2.976044610670056e-10    2    2    2    1
 0.2120958666070119    2    2    2    2
 6.618290577978734e-11    2    2    3    1
 1.331705608519028e-10    2    2    3    2
 0.2361611754783701    2    2    3    3
 -6.101761951473588e-13    2    2    4    1
 -9.638377133965566e-11    2    2    4    2
 -5.23958004324995e-11    2    2    4    3
 0.236161173372226    2    2    4    4
 -5.995927755067423e-07    2    2    5    1
 -5.358903592587871e-10    2    2    5    2
 9.644647094739601e-09    2    2    5    3
 -9.941024805660205e-11    2    2    5    4
 0.2380238095526017    2    2    5    5
 -6.086069789063021e-10    2    2    6    1
 -2.81159988229478e-07    2    2    6    2
 -6.85518561730139e-09    2    2    6    3
 4.443114382669365e-09    2    2    6    4
 -8.236700770266856e-11    2    2    6    5
 0.1710568431977404    2    2    6    6
 -1.445460458366645e-09    2    2    7    1
 1.332471720193814e-08    2    2    7    2
 1.978485695412851e-07    2    2    7    3
 2.35796591247285e-07    2    2    7    4
 6.898986752162955e-11    2    2    7    5
 1.266865126730289e-10    2    2    7    6
 0.2180350762646298    2    2    7    7
 -1.948738330639993e-11    2    2    8    1
 8.823067868591969e-09    2    2    8    2
 -2.354753246479055e-07    2    2    8    3
 4.357659844713464e-07    2    2    8    4
 1.339756283911397e-12    2    2    8    5
 9.144917670585123e-11    2    2    8    6
 -4.130444964885069e-11    2    2    8    7
 0.2180350676883942    2    2    8    8
 5.038276966070139e-10    2    2    9    1
 -0.0275926060823041    2    2    9    2
 6.15165077792976e-10    2    2    9    3
 -4.432537243646094e-10    2    2    9    4
 -2.431386878923823e-09    2    2    9    5
 -3.908965096533992e-07    2    2    9    6
 3.229424181392617e-08    2    2    9    7
 2.132836347214452e-08    2    2    9    8
 0.1524970430799044    2    2    9    9
 1.256289179283111e-10    2    2   10    1
 -1.048270606111254e-09    2    2   10    2
 -0.01440447448128187    2    2   10    3
 -2.327473182391217e-05    2    2   10    4
 4.761482688079443e-08    2    2   10    5
 1.097456776166256e-09    2    2   10    6
 -1.354526223934551e-06    2    2   10    7
 -8.745584459717457e-07    2    2   10    8
 -3.781459492512224e-10    2    2   10    9
 0.1621805854134897    2    2   10   10
 1.358560601486723e-12    2    2   11    1
 -7.580282026831535e-10    2    2   11    2
 -2.327468052268328e-05    2    2   11    3
 0.01440447887253443    2    2   11    4
 5.285272202243619e-10    2    2   11    5
 7.088605030143582e-10    2    2   11    6
 -8.896629834682377e-07    2    2   11    7
 -3.732942210418078e-06    2    2   11    8
 -2.744347285618638e-10    2    2   11    9
 1.232052969349631e-10    2    2   11   10
 0.162180587093401    2    2   11   11
 2.989119555403805e-09    2    2   12    1
 1.759289950125531e-09    2    2   12    2
 -1.988100563820072e-07    2    2   12    3
 -8.763691836287665e-10    2    2   12    4
 1.823061846048777e-10    2    2   12    5
 -5.419148337857187e-11    2    2   12    6
 -0.03749934023089928    2    2   12    7
 0.0003063830239920718    2    2   12    8
 -1.855905172698092e-08    2    2   12    9
 5.019362032304086e-07    2    2   12   10
 5.979537937657137e-07    2    2   12   11
 0.1603973692176926    2    2   12   12
 2.517199380392146e-12    3    1    1    1
 3.109060278498693e-11    3    1    2    1
 6.618290577993824e-11    3    1    2    2
 0.01044319661450955    3    1    3    1
 0.004204161870788984    3    1    3    2
 2.14096228572655e-11    3    1    3    3
 1.397782385543509e-10    3    1    4    1
 -0.003101222518226049    3    1    4    2
 -1.304225474002378e-12    3    1    4    3
 -8.14974909833089e-11    3    1    4    4
 6.897052403371909e-07    3    1    5    1
 -8.978286369634719e-09    3    1    5    2
 1.315384845596632e-08    3    1    5    3
 -3.516724453882174e-08    3    1    5    4
 -2.581149186968716e-11    3    1    5    5
 1.318661133197757e-10    3    1    6    1
 1.901433752297627e-07    3    1    6    2
 9.711921617987197e-09    3    1    6    3
 -8.118541526440007e-09    3    1    6    4
 -8.168419433654084e-12    3    1    6    5
 3.376870263192765e-12    3    1    6    6
 5.469153401051887e-08    3    1    7    1
 7.188910194773203e-08    3    1    7    2
 -4.936535982172944e-07    3    1    7    3
 9.499363959047589e-11    3    1    7    4
 -0.009323137572855949    3    1    7    5
 -0.0005497080145463435    3    1    7    6
 2.947245793857961e-11    3    1    7    7
 -4.044995227679534e-08    3    1    8    1
 1.548653468580351e-07    3    1    8    2
 1.338944182630385e-09    3    1    8    3
 4.685935542388727e-07    3    1    8    4
 1.262203926794466e-05    3    1    8    5
 -0.0004043469482072301    3    1    8    6
 4.678589750424889e-12    3    1    8    7
 -8.826768471665674e-11    3    1    8    8
 8.706505447619942e-11    3    1    9    1
 -1.490382021740744e-10    3    1    9    2
 -0.002302826603641623    3    1    9    3
 0.001698692410933536    3    1    9    4
 9.279050492396887e-10    3    1    9    5
 8.952640408399823e-08    3    1    9    6
 -2.669530148274852e-08    3    1    9    7
 -5.800266400799901e-08    3    1    9    8
 1.158331867085345e-10    3    1    9    9
 -0.00219352184143162    3    1   10    1
 0.002021384415756546    3    1   10    2
 -7.298501222028908e-11    3    1   10    3
 6.242065767850617e-11    3    1   10    4
 1.752523864611062e-07    3    1   10    5
 2.058554143789278e-08    3    1   10    6
 2.407607807815447e-07    3    1   10    7
 -2.207148412927046e-10    3    1   10    8
 -0.0007441289482679131    3    1   10    9
 -5.964771710807697e-11    3    1   10   10
 -3.544278694539759e-06    3    1   11    1
 0.00149613412904053    3    1   11    2
 -6.019213399920927e-11    3    1   11    3
 -7.009933091600503e-12    3    1   11    4
 1.387519627915893e-07    3    1   11    5
 3.594847310211769e-08    3    1   11    6
 1.22688185735114e-09    3    1   11    7
 2.395200194048196e-07    3    1   11    8
 -0.0005507693706222246    3    1   11    9
 -5.510874267963372e-11    3    1   11   10
 -7.416399341412069e-11    3    1   11   11
 -4.522222778155423e-08    3    1   12    1
 -1.846545214218347e-08    3    1   12    2
 2.773822099449347e-07    3    1   12    3
 1.382910566502752e-09    3    1   12    4
 0.005866035159601807    3    1   12    5
 0.001738401502507358    3    1   12    6
 -2.632395632617301e-11    3    1   12    7
 -1.263924202749391e-13    3    1   12    8
 4.969652184617946e-11    3    1   12    9
 5.973613699276073e-09    3    1   12   10
 6.307099130693801e-11    3    1   12   11
 2.322230256978299e-11    3    1   12   12
 1.186197261983086e-10    3    2    1    1
 3.157397550421702e-11    3    2    2    1
 1.331705608519032e-10    3    2    2    2
 0.004204161870788982    3    2    3    1
 0.01631320124402176    3    2    3    2
 3.153499379684423e-11    3    2    3    3
 -0.003101222493669209    3    2    4    1
 -7.094052946257631e-11    3    2    4    2
 -9.041152121331282e-12    3    2    4    3
 9.046154252254539e-12    3    2    4    4
 7.165119244162848e-09    3    2    5    1
 -3.05913337961982e-08    3    2    5    2
 2.295530993144065e-08    3    2    5    3
 -2.25057424427929e-08    3    2    5    4
 9.759324277059398e-11    3    2    5    5
 8.829270313100772e-09    3    2    6    1
 5.530249346999889e-09    3    2    6    2
 3.273558474116568e-08    3    2    6    3
 -8.526759286440075e-09    3    2    6    4
 -3.543516077698061e-11    3    2    6    5
 -1.830264261069812e-11    3    2    6    6
 7.436517322416514e-08    3    2    7    1
 1.888949171041125e-07    3    2    7    2
 -1.076668226731835e-08    3    2    7    3
 7.780954322476331e-10    3    2    7    4
 -0.001221316356519613    3    2    7    5
 0.0002262374286521556    3    2    7    6
 3.414650841099841e-11    3    2    7    7
 1.541301268292629e-07    3    2    8    1
 1.817285040093609e-07    3    2    8    2
 -1.470677259767368e-09    3    2    8    3
 8.232308137875736e-09    3    2    8    4
 -0.0008983595876000508    3    2    8    5
 -3.062904410687761e-07    3    2    8    6
 -1.01781348339001e-12    3    2    8    7
 3.979197614903936e-11    3    2    8    8
 -1.502253829357395e-10    3    2    9    1
 -4.312527610204816e-10    3    2    9    2
 -0.008949478202516589    3    2    9    3
 2.068228637753452e-11    3    2    9    4
 2.056997949300977e-08    3    2    9    5
 6.778161177248471e-09    3    2    9    6
 -3.78407589161526e-08    3    2    9    7
 -4.851700254935968e-08    3    2    9    8
 1.336464217293091e-10    3    2    9    9
 0.002008880824550583    3    2   10    1
 0.009856027543329074    3    2   10    2
 -3.764163971073602e-10    3    2   10    3
 -2.509209961368888e-11    3    2   10    4
 4.950838061239369e-08    3    2   10    5
 3.673363009827226e-08    3    2   10    6
 1.341485310026221e-08    3    2   10    7
 2.56862225854885e-09    3    2   10    8
 -0.001874772206679129    3    2   10    9
 -1.36893019743182e-10    3    2   10   10
 0.001486879544237029    3    2   11    1
 1.592536547333033e-05    3    2   11    2
 -2.9644953011531e-10    3    2   11    3
 1.651694639410897e-13    3    2   11    4
 7.851925410747783e-08    3    2   11    5
 -1.715353422111162e-08    3    2   11    6
 3.372158827487778e-09    3    2   11    7
 5.189531850543818e-09    3    2   11    8
 -3.029258981192043e-06    3    2   11    9
 -7.567462836649483e-11    3    2   11   10
 6.996303970913758e-11    3    2   11   11
 -2.076016943402914e-08    3    2   12    1
 -6.768917133362665e-08    3    2   12    2
 1.613978862864201e-08    3    2   12    3
 -2.056951341425935e-09    3    2   12    4
 0.003002854768986744    3    2   12    5
 0.008202912506406342    3    2   12    6
 -1.754133765832298e-11    3    2   12    7
 -4.64219220227028e-11    3    2   12    8
 -9.071590638769395e-09    3    2   12    9
 4.959586542697521e-09    3    2   12   10
 1.506197854827709e-09    3    2   12   11
 -9.719544476255288e-12    3    2   12   12
 0.3470100600914181    3    3    1    1
 0.002742199777528472    3    3    2    1
 0.23616117547837    3    3    2    2
 2.140962285727375e-11    3    3    3    1
 3.153499379683688e-11    3    3    3    2
 0.3343454468530815    3    3    3    3
 1.696612155692511e-12    3    3    4    1
 -4.850054030078911e-11    3    3    4    2
 -3.812200762781316e-06    3    3    4    3
 0.3157056172124809    3    3    4    4
 1.40041095854108e-07    3    3    5    1
 1.225231219373809e-08    3    3    5    2
 9.692991692663218e-08    3    3    5    3
 -1.327936300344874e-09    3    3    5    4
 0.3480202118856818    3    3    5    5
 4.233533371346389e-09    3    3    6    1
 1.151054663752183e-07    3    3    6    2
 -5.517255937219478e-09    3    3    6    3
 4.348507448108034e-09    3    3    6    4
 0.001675281338898976    3    3    6    5
 0.1871522930877958    3    3    6    6
 -5.546036791102757e-08    3    3    7    1
 8.877031701906776e-09    3    3    7    2
 -8.84590138652797e-07    3    3    7    3
 7.869225358989131e-07    3    3    7    4
 1.738956627865358e-10    3    3    7    5
 2.752493684421987e-10    3    3    7    6
 0.3166548719998969    3    3    7    7
 -4.924447550105065e-11    3    3    8    1
 5.065691050943493e-09    3    3    8    2
 -7.666760046807964e-07    3    3    8    3
 2.797697182915837e-06    3    3    8    4
 6.733620217766244e-12    3    3    8    5
 1.429391023487668e-10    3    3    8    6
 -2.088119245911682e-05    3    3    8    7
 0.3009364002606195    3    3    8    8
 -0.0005747294020038872    3    3    9    1
 -0.03282663140559849    3    3    9    2
 1.942270926824224e-09    3    3    9    3
 -1.314627749271017e-09    3    3    9    4
 -1.097500225895851e-08    3    3    9    5
 -1.76490740522023e-07    3    3    9    6
 7.875198341587595e-08    3    3    9    7
 4.713640563187336e-08    3    3    9    8
 0.1608873398550292    3    3    9    9
 1.707150571910034e-10    3    3   10    1
 -1.337808198504934e-09    3    3   10    2
 -0.04399241634781791    3    3   10    3
 -6.958924389441584e-05    3    3   10    4
 1.193730695391063e-07    3    3   10    5
 4.548508157073544e-09    3    3   10    6
 -2.45807836452267e-06    3    3   10    7
 -1.871981470870907e-06    3    3   10    8
 -8.485090097685402e-10    3    3   10    9
 0.1820400798856236    3    3   10   10
 -1.161225817122436e-11    3    3   11    1
 -1.000021527588361e-09    3    3   11    2
 -6.877813191793362e-05    3    3   11    3
 0.04164173463488242    3    3   11    4
 1.343905134826682e-09    3    3   11    5
 2.665449432350387e-09    3    3   11    6
 -2.254754503227663e-06    3    3   11    7
 -7.687559989701199e-06    3    3   11    8
 -4.294578350220521e-10    3    3   11    9
 1.248579296660863e-05    3    3   11   10
 0.1755591775757679    3    3   11   11
 3.606158056669716e-08    3    3   12    1
 9.270029701635573e-09    3    3   12    2
 2.429308668711522e-07    3    3   12    3
 -3.72362333719372e-08    3    3   12    4
 3.42728633894231e-10    3    3   12    5
 -2.072343449705483e-10    3    3   12    6
 -0.08489007280939126    3    3   12    7
 0.0006479747718927434    3    3   12    8
 -4.588083846241229e-08    3    3   12    9
 1.454905154244171e-06    3    3   12   10
 1.344195884388472e-06    3    3   12   11
 0.1902022528597402    3    3   12   12
 5.493450459026511e-14    4    1    1    1
 -2.249335522268973e-11    4    1    2    1
 -6.101761951399527e-13    4    1    2    2
 1.397782379822675e-10    4    1    3    1
 -0.003101222493669212    4    1    3    2
 1.696612155636072e-12    4    1    3    3
 0.01044319651221052    4    1    4    1
 -0.004204162572457967    4    1    4    2
 5.47070971206643e-11    4    1    4    3
 -1.230350523843015e-12    4    1    4    4
 -6.566994446691109e-09    4    1    5    1
 6.565564962959684e-09    4    1    5    2
 -3.516724547291258e-08    4    1    5    3
 1.067893269236637e-07    4    1    5    4
 5.608255459121589e-13    4    1    5    5
 -1.52700530342724e-10    4    1    6    1
 -1.767088837995086e-09    4    1    6    2
 -9.318674510250491e-09    4    1    6    3
 -1.392678598894911e-08    4    1    6    4
 5.93457909433853e-12    4    1    6    5
 -1.45677415817821e-14    4    1    6    6
 4.044621789100135e-08    4    1    7    1
 1.535620326636204e-08    4    1    7    2
 3.711258103150196e-09    4    1    7    3
 -1.276607274309578e-09    4    1    7    4
 1.262187098625809e-05    4    1    7    5
 0.0004043468862873828    4    1    7    6
 3.338881706482697e-12    4    1    7    7
 5.203098274194905e-08    4    1    8    1
 1.177727362909648e-07    4    1    8    2
 2.486467099420826e-08    4    1    8    3
 -5.402094973708119e-09    4    1    8    4
 0.00932313666752487    4    1    8    5
 -0.000549707768383402    4    1    8    6
 -6.945827195596824e-11    4    1    8    7
 -2.676156640173181e-12    4    1    8    8
 -6.272510043953768e-11    4    1    9    1
 1.657325765449817e-12    4    1    9    2
 0.001698692448890003    4    1    9    3
 0.002302827151481709    4    1    9    4
 -9.657757876622325e-10    4    1    9    5
 -8.610635173599217e-10    4    1    9    6
 -3.554859995488889e-09    4    1    9    7
 -4.732615125758661e-08    4    1    9    8
 -1.269146774712254e-12    4    1    9    9
 -3.544292672939184e-06    4    1   10    1
 -0.00149613467510456    4    1   10    2
 6.826229183835853e-11    4    1   10    3
 1.052675505216105e-10    4    1   10    4
 -1.375807726133461e-07    4    1   10    5
 3.73274732977548e-10    4    1   10    6
 -2.78028107106176e-09    4    1   10    7
 2.793533265244986e-10    4    1   10    8
 0.0005507694433115498    4    1   10    9
 4.821427884045841e-11    4    1   10   10
 0.002193522217181291    4    1   11    1
 0.002021384693984913    4    1   11    2
 7.78388968696022e-11    4    1   11    3
 6.814559441850498e-11    4    1   11    4
 -5.499413340658018e-07    4    1   11    5
 2.74791546891011e-08    4    1   11    6
 -7.928317492680119e-10    4    1   11    7
 -1.821713193473845e-09    4    1   11    8
 -0.0007441287521733941    4    1   11    9
 -2.676903608199808e-11    4    1   11   10
 -4.67741616174286e-11    4    1   11   11
 -1.493215805748223e-09    4    1   12    1
 1.058352722639047e-08    4    1   12    2
 -2.62281386120967e-09    4    1   12    3
 4.258250770132798e-10    4    1   12    4
 3.998557443660892e-05    4    1   12    5
 -0.001300731416839136    4    1   12    6
 -1.139384408596213e-12    4    1   12    7
 7.003258231811781e-11    4    1   12    8
 4.768758566902679e-09    4    1   12    9
 -1.028417265608887e-10    4    1   12   10
 1.702330070454011e-10    4    1   12   11
 6.395216682054325e-12    4    1   12   12
 -8.590379890352057e-11    4    2    1    1
 -3.092362507754999e-13    4    2    2    1
 -9.638377133965669e-11    4    2    2    2
 -0.003101222518226047    4    2    3    1
 -7.094052836417893e-11    4    2    3    2
 -4.850054030079763e-11    4    2    3    3
 -0.004204162572457968    4    2    4    1
 0.016313203315082    4    2    4    2
 -4.55532920156978e-11    4    2    4    3
 1.895457050522152e-11    4    2    4    4
 -3.815244116438617e-09    4    2    5    1
 2.801012027233099e-10    4    2    5    2
 -1.643527329135828e-08    4    2    5    3
 -2.983495648902349e-08    4    2    5    4
 -7.069975271418555e-11    4    2    5    5
 -4.220224691256186e-11    4    2    6    1
 -3.530923586163641e-09    4    2    6    2
 -8.526759998819516e-09    4    2    6    3
 5.611594697712962e-08    4    2    6    4
 3.613071700620591e-13    4    2    6    5
 1.322985227851572e-11    4    2    6    6
 1.142021303290037e-08    4    2    7    1
 -1.829025706757655e-07    4    2    7    2
 8.223687660616296e-09    4    2    7    3
 2.887719771176932e-09    4    2    7    4
 0.000898359714204005    4    2    7    5
 -3.062863987228766e-07    4    2    7    6
 -5.062135846202926e-11    4    2    7    7
 1.196480963235226e-07    4    2    8    1
 -6.787754810913191e-07    4    2    8    2
 -3.431217989819317e-09    4    2    8    3
 -3.820933383508672e-09    4    2    8    4
 -0.001221315791021324    4    2    8    5
 -0.0002262390526170102    4    2    8    6
 3.260511503618858e-11    4    2    8    7
 -3.126080387394682e-12    4    2    8    8
 1.667621463815887e-12    4    2    9    1
 3.107501483547361e-10    4    2    9    2
 2.068217092786039e-11    4    2    9    3
 -0.008949479369408936    4    2    9    4
 -1.600261207087544e-10    4    2    9    5
 -4.384453867633215e-09    4    2    9    6
 4.879662650413091e-08    4    2    9    7
 1.687970156953289e-07    4    2    9    8
 -9.619052668210738e-11    4    2    9    9
 -0.001486880064573746    4    2   10    1
 1.592530877778071e-05    4    2   10    2
 -2.66160796056095e-12    4    2   10    3
 -4.146872468043741e-10    4    2   10    4
 -9.151490835739063e-09    4    2   10    5
 1.719730761303766e-08    4    2   10    6
 -5.871017861676526e-09    4    2   10    7
 -8.326404699947008e-10    4    2   10    8
 -3.029240963003115e-06    4    2   10    9
 -5.267326925413792e-11    4    2   10   10
 0.002008881038798839    4    2   11    1
 -0.009856027725500358    4    2   11    2
 -3.011782257607818e-11    4    2   11    3
 -2.753913178015788e-10    4    2   11    4
 6.894120651034647e-08    4    2   11    5
 9.670291946758424e-09    4    2   11    6
 4.266218190955847e-11    4    2   11    7
 -6.216989004390765e-09    4    2   11    8
 0.001874771201241369    4    2   11    9
 1.054449382346108e-10    4    2   11   10
 1.006628754479069e-10    4    2   11   11
 1.222200047142735e-08    4    2   12    1
 2.388061914792444e-10    4    2   12    2
 -8.471191576980963e-09    4    2   12    3
 1.096719688782542e-09    4    2   12    4
 -0.002246838159554792    4    2   12    5
 5.591474479248631e-05    4    2   12    6
 8.451571031063528e-12    4    2   12    7
 -5.6624988245347e-11    4    2   12    8
 -2.209665780763173e-09    4    2   12    9
 -1.550095922463661e-09    4    2   12   10
 -6.712532580544344e-10    4    2   12   11
 -3.111628579526375e-11    4    2   12   12
 -1.099450379299858e-10    4    3    1    1
 -0.00202279737402468    4    3    2    1
 -5.23957893990148e-11    4    3    2    2
 -1.304225474141899e-12    4    3    3    1
 -9.041152121328608e-12    4    3    3    2
 -3.812200762809878e-06    4    3    3    3
 5.47070971206726e-11    4    3    4    1
 -4.555329201570173e-11    4    3    4    2
 0.00931755470575054    4    3    4    3
 3.812155998407394e-06    4    3    4    4
 -6.523044041003231e-07    4    3    5    1
 -1.290488492789615e-08    4    3    5    2
 -4.67190325150249e-10    4    3    5    3
 1.788298564994706e-09    4    3    5    4
 -1.850064688276117e-10    4    3    5    5
 -5.305871521984391e-09    4    3    6    1
 -1.918861673748129e-07    4    3    6    2
 -4.436591717120703e-09    4    3    6    3
 -3.721639035849504e-09    4    3    6    4
 -0.001235780631821044    4    3    6    5
 7.56923588694992e-12    4    3    6    6
 3.037187363948405e-10    4    3    7    1
 1.151979157208051e-09    4    3    7    2
 5.196301058687372e-07    4    3    7    3
 -9.89188535468174e-08    4    3    7    4
 -3.314625894980149e-12    4    3    7    5
 -1.924687362374275e-11    4    3    7    6
 -2.167866488914514e-05    4    3    7    7
 2.487425807926236e-08    4    3    8    1
 -2.318771258630628e-09    4    3    8    2
 7.697748404482622e-08    4    3    8    3
 -5.195951671016286e-07    4    3    8    4
 4.103711578857268e-11    4    3    8    5
 -4.986093709924116e-11    4    3    8    6
 -0.007858977365243368    4    3    8    7
 2.167859407179218e-05    4    3    8    8
 0.0004239526955955978    4    3    9    1
 5.542636695734417e-12    4    3    9    2
 -3.202696510890071e-11    4    3    9    3
 7.183363509834126e-11    4    3    9    4
 4.68971811020367e-09    4    3    9    5
 -9.317599760220754e-08    4    3    9    6
 -2.70534801659957e-09    4    3    9    7
 -3.355960124060851e-09    4    3    9    8
 -3.995302527952179e-12    4    3    9    9
 1.487969639939697e-11    4    3   10    1
 -2.199507195410567e-11    4    3   10    2
 -4.206028552505304e-06    4    3   10    3
 -0.001176761225615827    4    3   10    4
 1.119028866645652e-10    4    3   10    5
 -3.103397702944403e-10    4    3   10    6
 -1.778696447899333e-07    4    3   10    7
 -6.96841465576884e-08    4    3   10    8
 9.521051534400151e-11    4    3   10    9
 8.454086411434681e-06    4    3   10   10
 3.063353085361863e-11    4    3   11    1
 -1.506580992508825e-11    4    3   11    2
 0.001176762192168552    4    3   11    3
 -4.206000449728714e-06    4    3   11    4
 4.723707988128484e-09    4    3   11    5
 4.733517217647296e-12    4    3   11    6
 4.043464204565532e-07    4    3   11    7
 -1.776447797054908e-07    4    3   11    8
 1.265465724084594e-10    4    3   11    9
 -0.003239222601429544    4    3   11   10
 -8.454066176109478e-06    4    3   11   11
 -2.119671610822996e-10    4    3   12    1
 -1.976958851620056e-09    4    3   12    2
 -2.769031545931859e-07    4    3   12    3
 4.626495167850004e-08    4    3   12    4