 &FCI NORB=10 ,NELEC=10 ,MS2=0,
  ORBSYM=1,1,1,1,1,1,1,1,1,1,
  ISYM=1,
 &END
  3.164498170102e-01    1  1  1  1
  1.152938945581e-01    2  1  2  1
  3.159919134588e-01    2  2  1  1
  3.502582295152e-01    2  2  2  2
  1.152938945581e-01    3  1  3  1
  3.399025916234e-02    3  2  3  2
  3.159919134588e-01    3  3  1  1
  2.822777111905e-01    3  3  2  2
  3.502582295152e-01    3  3  3  3
 -4.705918189881e-02    4  1  2  2
  7.549544496194e-03    4  1  3  2
  4.705918189881e-02    4  1  3  3
  6.686580336525e-02    4  1  4  1
 -8.265995725481e-02    4  2  2  1
  1.326085580260e-02    4  2  3  1
  8.447434926339e-02    4  2  4  2
  1.326085580260e-02    4  3  2  1
  8.265995725481e-02    4  3  3  1
  8.447434926339e-02    4  3  4  3
  3.166963444480e-01    4  4  1  1
  3.177177558864e-01    4  4  2  2
  3.177177558864e-01    4  4  3  3
  3.383164094839e-01    4  4  4  4
 -7.549544496194e-03    5  1  2  2
 -4.705918189881e-02    5  1  3  2
  7.549544496194e-03    5  1  3  3
  6.686580336525e-02    5  1  5  1
 -1.326085580260e-02    5  2  2  1
 -8.265995725481e-02    5  2  3  1
 -3.758779169053e-02    5  2  4  3
  8.447434926339e-02    5  2  5  2
 -8.265995725481e-02    5  3  2  1
  1.326085580260e-02    5  3  3  1
  3.758779169053e-02    5  3  4  2
  8.447434926339e-02    5  3  5  3
  1.824495374478e-02    5  4  5  4
  3.166963444480e-01    5  5  1  1
  3.177177558864e-01    5  5  2  2
  3.177177558864e-01    5  5  3  3
  3.018265019943e-01    5  5  4  4
  3.383164094839e-01    5  5  5  5
  2.650872965694e-02    6  1  4  2
 -1.877623993235e-02    6  1  4  3
 -1.877623993235e-02    6  1  5  2
 -2.650872965694e-02    6  1  5  3
  4.516861597661e-02    6  1  6  1
 -2.489209488317e-02    6  2  2  2
  2.439674717409e-02    6  2  3  2
  2.489209488317e-02    6  2  3  3
  3.997566017880e-02    6  2  4  1
 -1.614916240770e-02    6  2  4  4
 -2.831492103487e-02    6  2  5  1
  7.944968386275e-03    6  2  5  4
  1.614916240770e-02    6  2  5  5
  5.390066989023e-02    6  2  6  2
  2.439674717409e-02    6  3  2  2
  2.489209488317e-02    6  3  3  2
 -2.439674717409e-02    6  3  3  3
 -2.831492103487e-02    6  3  4  1
 -7.944968386275e-03    6  3  4  4
 -3.997566017880e-02    6  3  5  1
 -1.614916240770e-02    6  3  5  4
  7.944968386275e-03    6  3  5  5
  5.390066989023e-02    6  3  6  3
  7.014035471059e-02    6  4  2  1
 -4.968069560591e-02    6  4  3  1
 -5.646982629733e-02    6  4  4  2
 -2.778168758132e-02    6  4  4  3
  2.778168758132e-02    6  4  5  2
 -5.646982629733e-02    6  4  5  3
  8.307151042188e-02    6  4  6  4
 -4.968069560591e-02    6  5  2  1
 -7.014035471059e-02    6  5  3  1
  2.778168758132e-02    6  5  4  2
 -5.646982629733e-02    6  5  4  3
  5.646982629733e-02    6  5  5  2
  2.778168758132e-02    6  5  5  3
 -1.012348941616e-02    6  5  6  4
  7.878057448736e-02    6  5  6  5
  3.192306791797e-01    6  6  1  1
  3.208898930524e-01    6  6  2  2
  3.208898930524e-01    6  6  3  3
  3.265993742513e-01    6  6  4  4
 -1.148559893481e-02    6  6  5  4
  3.217310954225e-01    6  6  5  5
 -7.493565119780e-03    6  6  6  2
  9.535759893723e-03    6  6  6  3
  3.453815098035e-01    6  6  6  6
  1.877623993235e-02    7  1  4  2
  2.650872965694e-02    7  1  4  3
  2.650872965694e-02    7  1  5  2
 -1.877623993235e-02    7  1  5  3
  4.516861597661e-02    7  1  7  1
 -2.439674717409e-02    7  2  2  2
 -2.489209488317e-02    7  2  3  2
  2.439674717409e-02    7  2  3  3
  2.831492103487e-02    7  2  4  1
 -7.944968386274e-03    7  2  4  4
  3.997566017880e-02    7  2  5  1
 -1.614916240770e-02    7  2  5  4
  7.944968386275e-03    7  2  5  5
 -1.832139040300e-02    7  2  6  3
  9.535759893722e-03    7  2  6  6
  5.390066989023e-02    7  2  7  2
 -2.489209488317e-02    7  3  2  2
  2.439674717409e-02    7  3  3  2
  2.489209488317e-02    7  3  3  3
  3.997566017880e-02    7  3  4  1
  1.614916240770e-02    7  3  4  4
 -2.831492103487e-02    7  3  5  1
 -7.944968386275e-03    7  3  5  4
 -1.614916240770e-02    7  3  5  5
  1.832139040300e-02    7  3  6  2
  7.493565119780e-03    7  3  6  6
  5.390066989023e-02    7  3  7  3
  4.968069560591e-02    7  4  2  1
  7.014035471059e-02    7  4  3  1
 -2.778168758132e-02    7  4  4  2
  5.646982629733e-02    7  4  4  3
 -5.646982629733e-02    7  4  5  2
 -2.778168758132e-02    7  4  5  3
 -1.012348941616e-02    7  4  6  4
 -5.174681172894e-02    7  4  6  5
  7.878057448736e-02    7  4  7  4
  7.014035471059e-02    7  5  2  1
 -4.968069560591e-02    7  5  3  1
 -5.646982629733e-02    7  5  4  2
 -2.778168758132e-02    7  5  4  3
  2.778168758132e-02    7  5  5  2
 -5.646982629733e-02    7  5  5  3
  4.745587579443e-02    7  5  6  4
  1.012348941616e-02    7  5  6  5
  1.012348941616e-02    7  5  7  4
  8.307151042187e-02    7  5  7  5
 -1.148559893481e-02    7  6  4  4
 -2.434139414423e-03    7  6  5  4
  1.148559893481e-02    7  6  5  5
  9.535759893722e-03    7  6  6  2
  7.493565119780e-03    7  6  6  3
  7.493565119780e-03    7  6  7  2
 -9.535759893722e-03    7  6  7  3
  1.598161087087e-02    7  6  7  6
  3.192306791797e-01    7  7  1  1
  3.208898930524e-01    7  7  2  2
  3.208898930524e-01    7  7  3  3
  3.217310954225e-01    7  7  4  4
  1.148559893481e-02    7  7  5  4
  3.265993742513e-01    7  7  5  5
  7.493565119780e-03    7  7  6  2
 -9.535759893722e-03    7  7  6  3
  3.134182880617e-01    7  7  6  6
 -9.535759893722e-03    7  7  7  2
 -7.493565119780e-03    7  7  7  3
  3.453815098035e-01    7  7  7  7
 -5.634424688744e-04    8  1  4  4
  2.420152112320e-02    8  1  5  4
  5.634424688743e-04    8  1  5  5
  1.113486643872e-02    8  1  6  2
 -2.136286601274e-02    8  1  6  3
 -1.847750906305e-02    8  1  6  6
 -2.136286601274e-02    8  1  7  2
 -1.113486643872e-02    8  1  7  3
 -3.468638388395e-03    8  1  7  6
  1.847750906305e-02    8  1  7  7
  3.335995046487e-02    8  1  8  1
 -3.141852285277e-03    8  2  4  2
 -2.299449232267e-02    8  2  4  3
 -2.299449232267e-02    8  2  5  2
  3.141852285277e-03    8  2  5  3
  1.503962065435e-02    8  2  6  1
 -1.983431475309e-02    8  2  6  4
  1.717893315967e-02    8  2  6  5
 -2.885435606159e-02    8  2  7  1
  1.717893315967e-02    8  2  7  4
  1.983431475309e-02    8  2  7  5
  5.049088758378e-02    8  2  8  2
 -2.299449232267e-02    8  3  4  2
  3.141852285277e-03    8  3  4  3
  3.141852285277e-03    8  3  5  2
  2.299449232267e-02    8  3  5  3
 -2.885435606159e-02    8  3  6  1
 -7.327927495782e-03    8  3  6  4
  1.604847481116e-03    8  3  6  5
 -1.503962065435e-02    8  3  7  1
  1.604847481116e-03    8  3  7  4
  7.327927495782e-03    8  3  7  5
  6.214576884424e-03    8  3  8  2
  2.776794375902e-02    8  3  8  3
 -4.777126452630e-03    8  4  2  2
 -3.496268683738e-02    8  4  3  2
  4.777126452630e-03    8  4  3  3
 -1.157371586287e-03    8  4  4  1
  8.256688134424e-03    8  4  4  4
  4.971253400348e-02    8  4  5  1
 -1.015048499894e-02    8  4  5  4
 -8.256688134424e-03    8  4  5  5
 -3.425203911925e-02    8  4  6  2
 -2.407776152878e-02    8  4  6  3
  1.429183475366e-02    8  4  6  6
  3.527000248516e-02    8  4  7  2
 -9.893889523639e-03    8  4  7  3
 -7.332472201279e-03    8  4  7  6
 -1.429183475366e-02    8  4  7  7
 -1.603114960597e-02    8  4  8  1
  5.475047477165e-02    8  4  8  4
 -3.496268683738e-02    8  5  2  2
  4.777126452630e-03    8  5  3  2
  3.496268683737e-02    8  5  3  3
  4.971253400348e-02    8  5  4  1
 -1.015048499894e-02    8  5  4  4
  1.157371586287e-03    8  5  5  1
 -8.256688134424e-03    8  5  5  4
  1.015048499894e-02    8  5  5  5
  3.527000248516e-02    8  5  6  2
 -9.893889523639e-03    8  5  6  3
  7.332472201279e-03    8  5  6  6
  3.425203911925e-02    8  5  7  2
  2.407776152878e-02    8  5  7  3
  1.429183475366e-02    8  5  7  6
 -7.332472201279e-03    8  5  7  7
 -1.243153529559e-02    8  5  8  1
  5.475047477165e-02    8  5  8  5
  4.040561829730e-02    8  6  2  1
 -7.752044576351e-02    8  6  3  1
 -5.518562877624e-02    8  6  4  2
 -4.385641817656e-02    8  6  4  3
  5.930947487052e-02    8  6  5  2
 -2.155448483219e-02    8  6  5  3
 -2.619667196931e-02    8  6  6  1
  5.972397316954e-02    8  6  6  4
  3.064157825526e-02    8  6  6  5
 -4.917696521261e-03    8  6  7  1
 -3.064157825526e-02    8  6  7  4
  5.972397316954e-02    8  6  7  5
 -6.049585559366e-03    8  6  8  2
  1.991438804698e-02    8  6  8  3
  9.115285359841e-02    8  6  8  6
 -7.752044576351e-02    8  7  2  1
 -4.040561829730e-02    8  7  3  1
  5.930947487052e-02    8  7  4  2
 -2.155448483219e-02    8  7  4  3
  5.518562877624e-02    8  7  5  2
  4.385641817656e-02    8  7  5  3
 -4.917696521261e-03    8  7  6  1
 -3.064157825526e-02    8  7  6  4
  5.972397316954e-02    8  7  6  5
  2.619667196931e-02    8  7  7  1
 -5.972397316954e-02    8  7  7  4
 -3.064157825526e-02    8  7  7  5
 -1.991438804698e-02    8  7  8  2
 -6.049585559366e-03    8  7  8  3
  9.115285359842e-02    8  7  8  7
  3.233075058308e-01    8  8  1  1
  3.532969476780e-01    8  8  2  2
  1.519052602397e-02    8  8  3  2
  2.977543941090e-01    8  8  3  3
 -3.542706681464e-02    8  8  4  1
  3.297504354940e-01    8  8  4  4
 -2.747231747882e-02    8  8  5  1
  3.297504354940e-01    8  8  5  5
 -9.859241254960e-03    8  8  6  2
  3.245524082160e-02    8  8  6  3
  3.363587611225e-01    8  8  6  6
 -3.245524082160e-02    8  8  7  2
 -9.859241254960e-03    8  8  7  3
  3.363587611225e-01    8  8  7  7
 -2.158508713960e-02    8  8  8  4
 -2.921478840475e-02    8  8  8  5
  3.816605746698e-01    8  8  8  8
  2.420152112320e-02    9  1  4  4
  5.634424688743e-04    9  1  5  4
 -2.420152112320e-02    9  1  5  5
 -2.136286601274e-02    9  1  6  2
 -1.113486643872e-02    9  1  6  3
  3.468638388395e-03    9  1  6  6
 -1.113486643872e-02    9  1  7  2
  2.136286601274e-02    9  1  7  3
 -1.847750906305e-02    9  1  7  6
 -3.468638388395e-03    9  1  7  7
  1.243153529559e-02    9  1  8  4
 -1.603114960597e-02    9  1  8  5
  3.335995046487e-02    9  1  9  1
 -2.299449232267e-02    9  2  4  2
  3.141852285277e-03    9  2  4  3
  3.141852285277e-03    9  2  5  2
  2.299449232267e-02    9  2  5  3
 -2.885435606159e-02    9  2  6  1
  7.327927495782e-03    9  2  6  4
 -1.604847481116e-03    9  2  6  5
 -1.503962065435e-02    9  2  7  1
 -1.604847481116e-03    9  2  7  4
 -7.327927495782e-03    9  2  7  5
 -6.214576884424e-03    9  2  8  2
  2.004640540921e-02    9  2  8  3
  1.991438804698e-02    9  2  8  6
 -6.049585559366e-03    9  2  8  7
  2.776794375902e-02    9  2  9  2
  3.141852285277e-03    9  3  4  2
  2.299449232267e-02    9  3  4  3
  2.299449232267e-02    9  3  5  2
 -3.141852285277e-03    9  3  5  3
 -1.503962065435e-02    9  3  6  1
 -1.983431475309e-02    9  3  6  4
  1.717893315967e-02    9  3  6  5
  2.885435606159e-02    9  3  7  1
  1.717893315967e-02    9  3  7  4
  1.983431475309e-02    9  3  7  5
  2.676538415554e-03    9  3  8  2
  6.214576884424e-03    9  3  8  3
  6.049585559366e-03    9  3  8  6
  1.991438804698e-02    9  3  8  7
 -6.214576884424e-03    9  3  9  2
  5.049088758378e-02    9  3  9  3
 -3.496268683738e-02    9  4  2  2
  4.777126452630e-03    9  4  3  2
  3.496268683738e-02    9  4  3  3
  4.971253400348e-02    9  4  4  1
  1.015048499894e-02    9  4  4  4
  1.157371586287e-03    9  4  5  1
  8.256688134424e-03    9  4  5  4
 -1.015048499894e-02    9  4  5  5
  2.407776152878e-02    9  4  6  2
 -3.425203911925e-02    9  4  6  3
 -7.332472201279e-03    9  4  6  6
  9.893889523639e-03    9  4  7  2
  3.527000248516e-02    9  4  7  3
 -1.429183475366e-02    9  4  7  6
  7.332472201279e-03    9  4  7  7
  1.243153529559e-02    9  4  8  1
  2.211530148835e-02    9  4  8  5
 -2.921478840475e-02    9  4  8  8
  1.603114960597e-02    9  4  9  1
  5.475047477165e-02    9  4  9  4
  4.777126452630e-03    9  5  2  2
  3.496268683738e-02    9  5  3  2
 -4.777126452630e-03    9  5  3  3
  1.157371586287e-03    9  5  4  1
  8.256688134424e-03    9  5  4  4
 -4.971253400348e-02    9  5  5  1
 -1.015048499894e-02    9  5  5  4
 -8.256688134424e-03    9  5  5  5
  9.893889523639e-03    9  5  6  2
  3.527000248516e-02    9  5  6  3
  1.429183475366e-02    9  5  6  6
 -2.407776152878e-02    9  5  7  2
  3.425203911925e-02    9  5  7  3
 -7.332472201279e-03    9  5  7  6
 -1.429183475366e-02    9  5  7  7
 -1.603114960597e-02    9  5  8  1
 -2.211530148835e-02    9  5  8  4
  2.158508713960e-02    9  5  8  8
  1.243153529559e-02    9  5  9  1
  5.475047477165e-02    9  5  9  5
 -7.752044576351e-02    9  6  2  1
 -4.040561829730e-02    9  6  3  1
  4.385641817656e-02    9  6  4  2
 -5.518562877624e-02    9  6  4  3
  2.155448483219e-02    9  6  5  2
  5.930947487052e-02    9  6  5  3
  4.917696521261e-03    9  6  6  1
 -3.064157825526e-02    9  6  6  4
  5.972397316954e-02    9  6  6  5
 -2.619667196931e-02    9  6  7  1
 -5.972397316954e-02    9  6  7  4
 -3.064157825526e-02    9  6  7  5
  1.991438804698e-02    9  6  8  2
  6.049585559366e-03    9  6  8  3
  4.825360523421e-02    9  6  8  7
  6.049585559366e-03    9  6  9  2
 -1.991438804698e-02    9  6  9  3
  9.115285359841e-02    9  6  9  6
 -4.040561829730e-02    9  7  2  1
  7.752044576351e-02    9  7  3  1
  2.155448483219e-02    9  7  4  2
  5.930947487052e-02    9  7  4  3
 -4.385641817656e-02    9  7  5  2
  5.518562877624e-02    9  7  5  3
 -2.619667196931e-02    9  7  6  1
 -5.972397316954e-02    9  7  6  4
 -3.064157825526e-02    9  7  6  5
 -4.917696521261e-03    9  7  7  1
  3.064157825526e-02    9  7  7  4
 -5.972397316954e-02    9  7  7  5
 -6.049585559366e-03    9  7  8  2
  1.991438804698e-02    9  7  8  3
 -4.825360523421e-02    9  7  8  6
  1.991438804698e-02    9  7  9  2
  6.049585559366e-03    9  7  9  3
  9.115285359842e-02    9  7  9  7
 -1.519052602397e-02    9  8  2  2
  2.777127678446e-02    9  8  3  2
  1.519052602397e-02    9  8  3  3
  2.747231747882e-02    9  8  4  1
 -3.542706681464e-02    9  8  5  1
  3.245524082160e-02    9  8  6  2
  9.859241254960e-03    9  8  6  3
 -9.859241254960e-03    9  8  7  2
  3.245524082160e-02    9  8  7  3
 -2.921478840475e-02    9  8  8  4
  2.158508713960e-02    9  8  8  5
  2.158508713960e-02    9  8  9  4
  2.921478840475e-02    9  8  9  5
  3.651043813741e-02    9  8  9  8
  3.233075058308e-01    9  9  1  1
  2.977543941090e-01    9  9  2  2
 -1.519052602397e-02    9  9  3  2
  3.532969476780e-01    9  9  3  3
  3.542706681464e-02    9  9  4  1
  3.297504354940e-01    9  9  4  4
  2.747231747882e-02    9  9  5  1
  3.297504354940e-01    9  9  5  5
  9.859241254960e-03    9  9  6  2
 -3.245524082160e-02    9  9  6  3
  3.363587611225e-01    9  9  6  6
  3.245524082160e-02    9  9  7  2
  9.859241254960e-03    9  9  7  3
  3.363587611225e-01    9  9  7  7
  2.158508713960e-02    9  9  8  4
  2.921478840475e-02    9  9  8  5
  3.086396983949e-01    9  9  8  8
  2.921478840475e-02    9  9  9  4
 -2.158508713960e-02    9  9  9  5
  3.816605746698e-01    9  9  9  9
  2.129656313082e-02    10  1  6  4
 -1.725619525948e-02    10  1  6  5
 -1.725619525948e-02    10  1  7  4
 -2.129656313082e-02    10  1  7  5
 -2.764066677364e-02    10  1  8  2
 -7.065579473180e-03    10  1  8  3
  7.065579473180e-03    10  1  9  2
 -2.764066677364e-02    10  1  9  3
  2.889256748359e-02    10  1  10  1
  6.032611601855e-03    10  2  4  4
 -2.150099106722e-02    10  2  5  4
 -6.032611601855e-03    10  2  5  5
 -1.502285500942e-02    10  2  6  2
  1.676165291801e-02    10  2  6  3
  2.169929230119e-02    10  2  6  6
  1.676165291801e-02    10  2  7  2
  1.502285500942e-02    10  2  7  3
 -1.405926390333e-03    10  2  7  6
 -2.169929230119e-02    10  2  7  7
 -3.144828009142e-02    10  2  8  1
  2.083233224116e-02    10  2  8  4
  9.037907968451e-03    10  2  8  5
  8.038891539788e-03    10  2  9  1
 -9.037907968451e-03    10  2  9  4
  2.083233224116e-02    10  2  9  5
  3.380119241878e-02    10  2  10  2
 -2.150099106722e-02    10  3  4  4
 -6.032611601855e-03    10  3  5  4
  2.150099106722e-02    10  3  5  5
  1.676165291801e-02    10  3  6  2
  1.502285500942e-02    10  3  6  3
  1.405926390333e-03    10  3  6  6
  1.502285500942e-02    10  3  7  2
 -1.676165291801e-02    10  3  7  3
  2.169929230119e-02    10  3  7  6
 -1.405926390333e-03    10  3  7  7
 -8.038891539788e-03    10  3  8  1
 -9.037907968451e-03    10  3  8  4
  2.083233224116e-02    10  3  8  5
 -3.144828009142e-02    10  3  9  1
 -2.083233224116e-02    10  3  9  4
 -9.037907968451e-03    10  3  9  5
  3.380119241878e-02    10  3  10  3
  8.197109813108e-03    10  4  4  2
 -2.921553657034e-02    10  4  4  3
 -2.921553657034e-02    10  4  5  2
 -8.197109813107e-03    10  4  5  3
  3.349969617102e-02    10  4  6  1
 -2.714415911663e-02    10  4  7  1
  2.997345747250e-02    10  4  8  2
 -1.300369766557e-02    10  4  8  3
 -2.014294838436e-02    10  4  8  6
 -2.370905022221e-02    10  4  8  7
 -1.300369766557e-02    10  4  9  2
 -2.997345747250e-02    10  4  9  3
  2.370905022221e-02    10  4  9  6
 -2.014294838436e-02    10  4  9  7
  4.679088954722e-02    10  4  10  4
 -2.921553657034e-02    10  5  4  2
 -8.197109813108e-03    10  5  4  3
 -8.197109813107e-03    10  5  5  2
  2.921553657034e-02    10  5  5  3
 -2.714415911663e-02    10  5  6  1
 -3.349969617102e-02    10  5  7  1
  1.300369766557e-02    10  5  8  2
  2.997345747250e-02    10  5  8  3
  2.370905022221e-02    10  5  8  6
 -2.014294838436e-02    10  5  8  7
  2.997345747250e-02    10  5  9  2
 -1.300369766557e-02    10  5  9  3
  2.014294838436e-02    10  5  9  6
  2.370905022221e-02    10  5  9  7
  4.679088954722e-02    10  5  10  5
 -3.161384883571e-02    10  6  2  2
  3.527294653741e-02    10  6  3  2
  3.161384883571e-02    10  6  3  3
  5.202661046229e-02    10  6  4  1
 -4.215616122241e-02    10  6  5  1
  5.024626953236e-02    10  6  6  2
  3.255523515274e-03    10  6  6  3
 -3.255523515274e-03    10  6  7  2
  5.024626953236e-02    10  6  7  3
 -3.453291718575e-02    10  6  8  4
  4.064661499664e-02    10  6  8  5
 -1.196692911861e-02    10  6  8  8
  4.064661499664e-02    10  6  9  4
  3.453291718575e-02    10  6  9  5
  5.105884382645e-02    10  6  9  8
  1.196692911861e-02    10  6  9  9
  7.591585890696e-02    10  6  10  6
  3.527294653741e-02    10  7  2  2
  3.161384883571e-02    10  7  3  2
 -3.527294653741e-02    10  7  3  3
 -4.215616122241e-02    10  7  4  1
 -5.202661046229e-02    10  7  5  1
 -3.255523515274e-03    10  7  6  2
  5.024626953236e-02    10  7  6  3
 -5.024626953236e-02    10  7  7  2
 -3.255523515274e-03    10  7  7  3
 -4.064661499664e-02    10  7  8  4
 -3.453291718575e-02    10  7  8  5
  5.105884382645e-02    10  7  8  8
 -3.453291718575e-02    10  7  9  4
  4.064661499664e-02    10  7  9  5
  1.196692911861e-02    10  7  9  8
 -5.105884382645e-02    10  7  9  9
  7.591585890696e-02    10  7  10  7
 -1.193157373320e-01    10  8  2  1
 -3.049980058094e-02    10  8  3  1
  8.339355032459e-02    10  8  4  2
 -3.617949369620e-02    10  8  4  3
  3.617949369620e-02    10  8  5  2
  8.339355032459e-02    10  8  5  3
 -6.184987291114e-02    10  8  6  4
  7.279975677375e-02    10  8  6  5
 -7.279975677375e-02    10  8  7  4
 -6.184987291114e-02    10  8  7  5
 -2.285392631883e-02    10  8  8  6
  9.750998298468e-02    10  8  8  7
  9.750998298468e-02    10  8  9  6
  2.285392631883e-02    10  8  9  7
  1.453314315107e-01    10  8  10  8
  3.049980058094e-02    10  9  2  1
 -1.193157373320e-01    10  9  3  1
 -3.617949369620e-02    10  9  4  2
 -8.339355032459e-02    10  9  4  3
  8.339355032459e-02    10  9  5  2
 -3.617949369620e-02    10  9  5  3
  7.279975677375e-02    10  9  6  4
  6.184987291114e-02    10  9  6  5
 -6.184987291114e-02    10  9  7  4
  7.279975677375e-02    10  9  7  5
  9.750998298468e-02    10  9  8  6
  2.285392631883e-02    10  9  8  7
  2.285392631883e-02    10  9  9  6
 -9.750998298468e-02    10  9  9  7
  1.453314315107e-01    10  9  10  9
  3.258564099575e-01    10  10  1  1
  3.283554113782e-01    10  10  2  2
  3.283554113782e-01    10  10  3  3
  3.330994814087e-01    10  10  4  4
  3.330994814087e-01    10  10  5  5
  3.405141318117e-01    10  10  6  6
  3.405141318117e-01    10  10  7  7
  3.504258957392e-01    10  10  8  8
  3.504258957392e-01    10  10  9  9
  3.563971143066e-01    10  10  10  10
 -3.207371709707e+00    1  1  0  0
 -3.118811575478e+00    2  2  0  0
 -3.118811575478e+00    3  3  0  0
 -2.920921849276e+00    4  4  0  0
 -2.920921849276e+00    5  5  0  0
 -2.609106882865e+00    6  6  0  0
 -2.609106882865e+00    7  7  0  0
 -2.196168929635e+00    8  8  0  0
 -2.196168929635e+00    9  9  0  0
 -1.948421409153e+00    10  10  0  0
     12.632123172553   0  0  0  0
