 &FCI NORB=   8,NELEC=10,MS2=2,
  ORBSYM=1,1,1,1,1,1,1,1,
  ISYM=1,
 &END
 0.5939921098349672    1    1    1    1
 3.353773422171136e-14    1    1    2    1
 0.5958148955581066    1    1    2    2
 0.5523464967854231    1    1    3    3
 0.5523464967854235    1    1    4    4
 -2.287319639249219e-14    1    1    5    3
 2.721347452938616e-15    1    1    5    4
 0.577888466678429    1    1    5    5
 -3.076477874536243e-15    1    1    6    3
 -2.294903633445755e-14    1    1    6    4
 0.5778884666784281    1    1    6    6
 -0.02417293664854572    1    1    7    1
 1.938206539708887e-14    1    1    7    2
 0.51721257112436    1    1    7    7
 -0.07952720164584438    1    1    8    1
 -6.705942225126993e-14    1    1    8    2
 -0.1256594240535841    1    1    8    7
 0.5168448461741164    1    1    8    8
 3.362986430131831e-14    2    1    1    1
 0.1934312909221243    2    1    2    1
 -3.345717800029568e-14    2    1    2    2
 2.300958902579087e-14    2    1    3    3
 2.045238978176656e-15    2    1    4    3
 2.9777666877423e-14    2    1    4    4
 -0.1520310596218219    2    1    5    3
 0.01795464912957757    2    1    5    4
 -1.026750299365498e-14    2    1    5    5
 -0.01795464912957746    2    1    6    3
 -0.1520310596218218    2    1    6    4
 -1.214828205479274e-15    2    1    6    5
 -1.848173205459564e-14    2    1    6    6
 1.164910182205325e-14    2    1    7    1
 0.1127679986910165    2    1    7    2
 5.175222229925058e-15    2    1    7    7
 -3.053546998588175e-14    2    1    8    1
 -0.103632252599978    2    1    8    2
 2.104853834630771e-14    2    1    8    7
 1.772904739683057e-13    2    1    8    8
 0.5958148955581064    2    2    1    1
 -3.353936052497009e-14    2    2    2    1
 0.6253686383460908    2    2    2    2
 0.5524370789881925    2    2    3    3
 0.5524370789881928    2    2    4    4
 2.549479724556214e-14    2    2    5    3
 -2.972665516520756e-15    2    2    5    4
 0.5731040461697168    2    2    5    5
 2.670227320505925e-15    2    2    6    3
 2.551966613289353e-14    2    2    6    4
 0.573104046169716    2    2    6    6
 -0.01923176259886474    2    2    7    1
 -1.938466748230283e-14    2    2    7    2
 0.541169928238429    2    2    7    7
 -0.08008984722723285    2    2    8    1
 -4.111359690195382e-14    2    2    8    2
 -0.14168392302501    2    2    8    7
 0.542946825139855    2    2    8    8
 0.05979778634361053    3    1    3    1
 -1.611487748097505e-15    3    1    3    2
 -1.32840900480759e-15    3    1    5    1
 -0.03503115955740252    3    1    5    2
 -0.004137129478805046    3    1    6    2
 -0.0260356420826097    3    1    7    3
 -2.744996612825956e-15    3    1    7    5
 0.001331991084132318    3    1    8    3
 9.632390913540123e-15    3    1    8    5
 1.13560182579079e-15    3    1    8    6
 -1.614521878230284e-15    3    2    3    1
 0.02530590324802269    3    2    3    2
 -0.03038528268379797    3    2    5    1
 6.983072654819762e-15    3    2    5    2
 -0.003588458112754685    3    2    6    1
 3.743641681375198e-15    3    2    7    3
 -0.005047676115765691    3    2    7    5
 -0.00059612327772866    3    2    7    6
 -5.678996769370448e-15    3    2    8    3
 0.01007875268420819    3    2    8    5
 0.001190286172831286    3    2    8    6
 0.5523464967854232    3    3    1    1
 2.30209759322136e-14    3    3    2    1
 0.5524370789881925    3    3    2    2
 0.599599837564578    3    3    3    3
 0.5549022500095853    3    3    4    4
 -3.026376892145688e-14    3    3    5    3
 2.541911993392265e-15    3    3    5    4
 0.5998876776378655    3    3    5    5
 -3.759931819016793e-15    3    3    6    3
 -2.514640920622466e-14    3    3    6    4
 0.005045881058092888    3    3    6    5
 0.5577575719191841    3    3    6    6
 -0.07382053342106573    3    3    7    1
 2.370827703110327e-14    3    3    7    2
 0.5237718284508982    3    3    7    7
 -0.04165256405660667    3    3    8    1
 -7.417687319475394e-14    3    3    8    2
 -0.1449577165751949    3    3    8    7
 0.4807342905714787    3    3    8    8
 0.0597977863436105    4    1    4    1
 0.004137129478805054    4    1    5    2
 -1.974965279375557e-15    4    1    6    1
 -0.03503115955740253    4    1    6    2
 -0.02603564208260967    4    1    7    4
 -2.662761572108825e-15    4    1    7    6
 0.001331991084132335    4    1    8    4
 -1.14575436269658e-15    4    1    8    5
 9.579338698954745e-15    4    1    8    6
 0.02530590324802269    4    2    4    2
 0.003588458112754692    4    2    5    1
 -0.03038528268379799    4    2    6    1
 6.834325091987252e-15    4    2    6    2
 3.845556685588836e-15    4    2    7    4
 0.0005961232777286676    4    2    7    5
 -0.005047676115765676    4    2    7    6
 -6.096001253699107e-15    4    2    8    4
 -0.001190286172831307    4    2    8    5
 0.01007875268420815    4    2    8    6
 2.046706919892898e-15    4    3    2    1
 0.02234879377749659    4    3    4    3
 -2.352911414289045e-15    4    3    5    3
 -2.977379996026055e-15    4    3    5    4
 -0.005045881058093167    4    3    5    5
 -2.612579952181691e-15    4    3    6    3
 -3.012691211410311e-15    4    3    6    4
 0.02106505285934041    4    3    6    5
 0.00504588105809284    4    3    6    6
 1.457721344510748e-15    4    3    7    2
 -1.457541688830504e-15    4    3    8    2
 0.5523464967854234    4    4    1    1
 2.976687628219514e-14    4    4    2    1
 0.5524370789881929    4    4    2    2
 0.5549022500095854    4    4    3    3
 0.5995998375645786    4    4    4    4
 -3.324185544884006e-14    4    4    5    3
 4.821663901477535e-15    4    4    5    4
 0.5577575719191851    4    4    5    5
 -4.703377444459367e-15    4    4    6    3
 -3.928402606467526e-14    4    4    6    4
 -0.005045881058093111    4    4    6    5
 0.5998876776378651    4    4    6    6
 -0.0738205334210657    4    4    7    1
 2.836031546207859e-14    4    4    7    2
 0.5237718284508984    4    4    7    7
 -0.04165256405660654    4    4    8    1
 -7.908768063127295e-14    4    4    8    2
 -0.144957716575195    4    4    8    7
 0.4807342905714786    4    4    8    8
 -1.323927128205019e-15    5    1    3    1
 -0.03038528268379797    5    1    3    2
 0.003588458112754694    5    1    4    2
 0.09063322590430843    5    1    5    1
 -1.200882060451536e-14    5    1    5    2
 -1.213330651228528e-15    5    1    7    3
 -0.03188653821027183    5    1    7    5
 1.356857334822159e-14    5    1    8    3
 -1.600445036914477e-15    5    1    8    4
 1.44212416900054e-05    5    1    8    5
 -0.03503115955740251    5    2    3    1
 6.978179627592638e-15    5    2    3    2
 0.004137129478805054    5    2    4    1
 -1.201441789648491e-14    5    2    5    1
 0.034388054777468    5    2    5    2
 0.0005457186986760503    5    2    7    3
 -6.444859216630178e-05    5    2    7    4
 3.899224693126868e-15    5    2    7    5
 0.008363077328639296    5    2    8    3
 -0.000987667384893313    5    2    8    4
 -5.037311713584902e-15    5    2    8    5
 -2.293830185647121e-14    5    3    1    1
 -0.152031059621822    5    3    2    1
 2.553504650553317e-14    5    3    2    2
 -3.025205953799404e-14    5    3    3    3
 -2.335547662386805e-15    5    3    4    3
 -3.324483361668261e-14    5    3    4    4
 0.2129501761086575    5    3    5    3
 -0.02291488151341591    5    3    5    4
 1.277718707747011e-14    5    3    5    5
 0.02291488151341577    5    3    6    3
 0.1751135161919763    5    3    6    4
 1.696581582361946e-15    5    3    6    5
 1.963525709755033e-14    5    3    6    6
 -1.824378532846947e-14    5    3    7    1
 -0.1069139776372543    5    3    7    2
 3.957558525828761e-14    5    3    8    1
 0.1085041788804114    5    3    8    2
 -1.042267743742545e-14    5    3    8    7
 -1.614637656396933e-13    5    3    8    8
 2.737214733602093e-15    5    4    1    1
 0.01795464912957757    5    4    2    1
 -2.980728206672461e-15    5    4    2    2
 2.546851889540652e-15    5    4    3    3
 -2.982358961569134e-15    5    4    4    3
 4.818516327045538e-15    5    4    4    4
 -0.02291488151341591    5    4    5    3
 0.02162454445452743    5    4    5    4
 -1.48811830371319e-15    5    4    5    5
 0.01621211546215367    5    4    6    3
 -0.0229148815134159    5    4    6    4
 1.081539947932284e-15    5    4    6    5
 -1.951630402560267e-15    5    4    6    6
 2.106035009160925e-15    5    4    7    1
 0.01262638674162653    5    4    7    2
 -4.643321130924457e-15    5    4    8    1
 -0.01281418721764325    5    4    8    2
 1.19999259840751e-15    5    4    8    7
 1.908374902221556e-14    5    4    8    8
 0.577888466678429    5    5    1    1
 -1.029375197868884e-14    5    5    2    1
 0.5731040461697167    5    5    2    2
 0.5998876776378657    5    5    3    3
 -0.005045881058093166    5    5    4    3
 0.5577575719191848    5    5    4    4
 1.28202570087721e-14    5    5    5    3
 -1.487959061519106e-15    5    5    5    4
 0.6189094390564664    5    5    5    5
 1.231816298269406e-15    5    5    6    3
 1.031460480178589e-14    5    5    6    4
 0.5713769842474521    5    5    6    6
 -0.06126540161444417    5    5    7    1
 0.5280817063103582    5    5    7    7
 -0.05660382442437345    5    5    8    1
 -5.304744273266153e-14    5    5    8    2
 -0.1430609611831586    5    5    8    7
 0.5009856876602899    5    5    8    8
 -0.003588458112754684    6    1    3    2
 -1.962642022304603e-15    6    1    4    1
 -0.03038528268379799    6    1    4    2
 0.09063322590430831    6    1    6    1
 -1.381709198452385e-14    6    1    6    2
 -1.094647782791044e-15    6    1    7    4
 -0.03188653821027172    6    1    7    6
 1.607492351035633e-15    6    1    8    3
 1.356170560508525e-14    6    1    8    4
 1.442124169001878e-05    6    1    8    6
 -0.004137129478805045    6    2    3    1
 -0.03503115955740253    6    2    4    1
 6.837374975521151e-15    6    2    4    2
 -1.381302612812294e-14    6    2    6    1
 0.03438805477746803    6    2    6    2
 6.44485921663113e-05    6    2    7    3
 0.0005457186986760615    6    2    7    4
 3.810402171299822e-15    6    2    7    6
 0.0009876673848932876    6    2    8    3
 0.008363077328639255    6    2    8    4
 -4.481613419198113e-15    6    2    8    6
 -3.08183385139917e-15    6    3    1    1
 -0.01795464912957747    6    3    2    1
 2.669496547545653e-15    6    3    2    2
 -3.75028919594525e-15    6    3    3    3
 -2.610608059480483e-15    6    3    4    3
 -4.693476052822438e-15    6    3    4    4
 0.02291488151341576    6    3    5    3
 0.01621211546215366    6    3    5    4
 1.223103717373948e-15    6    3    5    5
 0.02162454445452736    6    3    6    3
 0.02291488151341573    6    3    6    4
 2.586962711241406e-15    6    3    6    5
 2.515888282516416e-15    6    3    6    6
 -2.25715367489038e-15    6    3    7    1
 -0.01262638674162645    6    3    7    2
 4.768141567115116e-15    6    3    8    1
 0.01281418721764313    6    3    8    2
 -1.180473221172191e-15    6    3    8    7
 -1.936622741622092e-14    6    3    8    8
 -2.300906135371052e-14    6    4    1    1
 -0.1520310596218218    6    4    2    1
 2.555407774502527e-14    6    4    2    2
 -2.514552151569593e-14    6    4    3    3
 -3.002101605503738e-15    6    4    4    3
 -3.928946062806485e-14    6    4    4    4
 0.1751135161919763    6    4    5    3
 -0.0229148815134159    6    4    5    4
 1.025008799625943e-14    6    4    5    5
 0.02291488151341572    6    4    6    3
 0.212950176108657    6    4    6    4
 1.278623338934678e-15    6    4    6    5
 2.4470022904656e-14    6    4    6    6
 -1.871672094167e-14    6    4    7    1
 -0.1069139776372542    6    4    7    2
 3.971919403475279e-14    6    4    8    1
 0.1085041788804112    6    4    8    2
 -1.045088423077026e-14    6    4    8    7
 -1.613992272116149e-13    6    4    8    8
 -1.218585499151499e-15    6    5    2    1
 0.005045881058092908    6    5    3    3
 0.02106505285934041    6    5    4    3
 -0.005045881058093103    6    5    4    4
 1.695717608755747e-15    6    5    5    3
 1.07510461511552e-15    6    5    5    4
 2.587001251240506e-15    6    5    6    3
 1.279843066378725e-15    6    5    6    4
 0.02376622740450678    6    5    6    5
 0.5778884666784282    6    6    1    1
 -1.843684665065629e-14    6    6    2    1
 0.5731040461697161    6    6    2    2
 0.5577575719191838    6    6    3    3
 0.005045881058092848    6    6    4    3
 0.5998876776378651    6    6    4    4
 1.97010376762341e-14    6    6    5    3
 -1.97313953370637e-15    6    6    5    4
 0.5713769842474521    6    6    5    5
 2.471872533049702e-15    6    6    6    3
 2.435759791563283e-14    6    6    6    4
 0.618909439056465    6    6    6    6
 -0.06126540161444415    6    6    7    1
 -6.096480807426332e-15    6    6    7    2
 0.5280817063103582    6    6    7    7
 -0.05660382442437337    6    6    8    1
 -4.709337304592061e-14    6    6    8    2
 -0.1430609611831576    6    6    8    7
 0.5009856876602902    6    6    8    8
 -0.0241729366485458    7    1    1    1
 1.170125194654981e-14    7    1    2    1
 -0.01923176259886481    7    1    2    2
 -0.07382053342106572    7    1    3    3
 -0.07382053342106576    7    1    4    4
 -1.829428535743416e-14    7    1    5    3
 2.113435294825994e-15    7    1    5    4
 -0.06126540161444431    7    1    5    5
 -2.240043003517989e-15    7    1    6    3
 -1.863556170814649e-14    7    1    6    4
 -0.06126540161444415    7    1    6    6
 0.05549756740157847    7    1    7    1
 7.431758658991983e-15    7    1    7    2
 -0.04914606926938268    7    1    7    7
 -0.0158516256236913    7    1    8    1
 9.380490091290272e-15    7    1    8    2
 0.04894224598581469    7    1    8    7
 -0.01158490846741402    7    1    8    8
 1.944871672564241e-14    7    2    1    1
 0.1127679986910165    7    2    2    1
 -1.925629794508055e-14    7    2    2    2
 2.364672043245197e-14    7    2    3    3
 1.445105970651617e-15    7    2    4    3
 2.841592250130837e-14    7    2    4    4
 -0.1069139776372544    7    2    5    3
 0.01262638674162654    7    2    5    4
 -0.01262638674162646    7    2    6    3
 -0.1069139776372543    7    2    6    4
 -6.095412354042529e-15    7    2    6    6
 7.412690253283394e-15    7    2    7    1
 0.09925045647932532    7    2    7    2
 4.017185889493291e-15    7    2    7    7
 -1.40061708975639e-14    7    2    8    1
 -0.07552565971136925    7    2    8    2
 7.81574241090488e-15    7    2    8    7
 1.378636788063048e-13    7    2    8    8
 -0.0260356420826097    7    3    3    1
 3.732760509471094e-15    7    3    3    2
 -1.213565125601803e-15    7    3    5    1
 0.0005457186986760471    7    3    5    2
 6.444859216631264e-05    7    3    6    2
 0.02785212318439067    7    3    7    3
 -0.009526052414018054    7    3    8    3
 -3.140554222930136e-15    7    3    8    5
 -0.02603564208260968    7    4    4    1
 3.839849564253911e-15    7    4    4    2
 -6.444859216630124e-05    7    4    5    2
 -1.098645085022252e-15    7    4    6    1
 0.000545718698676062    7    4    6    2
 0.02785212318439066    7    4    7    4
 -0.00952605241401804    7    4    8    4
 -3.122917938177118e-15    7    4    8    6
 -2.766963560624048e-15    7    5    3    1
 -0.005047676115765693    7    5    3    2
 0.0005961232777286665    7    5    4    2
 -0.03188653821027182    7    5    5    1
 3.895123674101245e-15    7    5    5    2
 0.03255055583835364    7    5    7    5
 -5.33817781644963e-15    7    5    8    3
 -0.01034225681949935    7    5    8    5
 -0.0005961232777286591    7    6    3    2
 -2.641199506059521e-15    7    6    4    1
 -0.005047676115765687    7    6    4    2
 -0.03188653821027172    7    6    6    1
 3.801844388807849e-15    7    6    6    2
 0.03255055583835355    7    6    7    6
 -5.344610184651079e-15    7    6    8    4
 -0.0103422568194993    7    6    8    6
 0.5172125711243596    7    7    1    1
 5.178583256659763e-15    7    7    2    1
 0.5411699282384288    7    7    2    2
 0.5237718284508981    7    7    3    3
 0.5237718284508984    7    7    4    4
 0.5280817063103584    7    7    5    5
 0.5280817063103579    7    7    6    6
 -0.04914606926938257    7    7    7    1
 4.048844592929868e-15    7    7    7    2
 0.5258003196732307    7    7    7    7
 -0.02803216529434494    7    7    8    1
 -4.860695179687013e-14    7    7    8    2
 -0.124486162894001    7    7    8    7
 0.4904687029355682    7    7    8    8
 -0.0795272016458444    8    1    1    1
 -3.050906966298172e-14    8    1    2    1
 -0.080089847227233    8    1    2    2
 -0.0416525640566066    8    1    3    3
 -0.04165256405660656    8    1    4    4
 3.950052090972989e-14    8    1    5    3
 -4.641821866116502e-15    8    1    5    4
 -0.05660382442437355    8    1    5    5
 4.777265822514254e-15    8    1    6    3
 3.973983821051533e-14    8    1    6    4
 -0.05660382442437344    8    1    6    6
 -0.01585162562369137    8    1    7    1
 -1.391757802754467e-14    8    1    7    2
 -0.02803216529434498    8    1    7    7
 0.04964098041873436    8    1    8    1
 5.791764637330665e-14    8    1    8    2
 0.02861743640663797    8    1    8    7
 -0.0601867972306093    8    1    8    8
 -6.71046876919712e-14    8    2    1    1
 -0.103632252599978    8    2    2    1
 -4.111728318934027e-14    8    2    2    2
 -7.430124224216961e-14    8    2    3    3
 -1.465082395679662e-15    8    2    4    3
 -7.915134273375236e-14    8    2    4    4
 0.1085041788804113    8    2    5    3
 -0.01281418721764324    8    2    5    4
 -5.291710266589617e-14    8    2    5    5
 0.01281418721764313    8    2    6    3
 0.1085041788804111    8    2    6    4
 -4.694305509836036e-14    8    2    6    6
 9.485034285772187e-15    8    2    7    1
 -0.07552565971136914    8    2    7    2
 -4.860459365714498e-14    8    2    7    7
 5.795675896667907e-14    8    2    8    1
 0.1158287111178444    8    2    8    2
 6.366020449503906e-14    8    2    8    7
 -1.448657816968679e-13    8    2    8    8
 0.00133199108413231    8    3    3    1
 -5.683832904451907e-15    8    3    3    2
 1.356499314735945e-14    8    3    5    1
 0.0083630773286393    8    3    5    2
 1.611287598731651e-15    8    3    6    1
 0.0009876673848932911    8    3    6    2
 -0.00952605241401804    8    3    7    3
 -5.290933706783574e-15    8    3    7    5
 0.01043621243155693    8    3    8    3
 -7.198076668404624e-15    8    3    8    5
 0.001331991084132329    8    4    4    1
 -6.092188334417931e-15    8    4    4    2
 -1.601138534443316e-15    8    4    5    1
 -0.0009876673848933134    8    4    5    2
 1.355953445223554e-14    8    4    6    1
 0.00836307732863926    8    4    6    2
 -0.009526052414018032    8    4    7    4
 -5.284825858080041e-15    8    4    7    6
 0.01043621243155692    8    4    8    4
 -7.26542791252476e-15    8    4    8    6
 9.603303204198796e-15    8    5    3    1
 0.01007875268420818    8    5    3    2
 -1.137041613300855e-15    8    5    4    1
 -0.001190286172831308    8    5    4    2
 1.442124169000524e-05    8    5    5    1
 -5.028040722178119e-15    8    5    5    2
 -3.102769777219017e-15    8    5    7    3
 -0.01034225681949933    8    5    7    5
 -7.203540877947362e-15    8    5    8    3
 0.01419824763730808    8    5    8    5
 1.137470337214463e-15    8    6    3    1
 0.001190286172831286    8    6    3    2
 9.576669449037614e-15    8    6    4    1
 0.01007875268420814    8    6    4    2
 1.442124169002189e-05    8    6    6    1
 -4.473690277050345e-15    8    6    6    2
 -3.091317044739191e-15    8    6    7    4
 -0.01034225681949928    8    6    7    6
 -7.26729725964543e-15    8    6    8    4
 0.01419824763730806    8    6    8    6
 -0.1256594240535845    8    7    1    1
 2.086503712861454e-14    8    7    2    1
 -0.1416839230250102    8    7    2    2
 -0.144957716575195    8    7    3    3
 -0.144957716575195    8    7    4    4
 -1.035179971256572e-14    8    7    5    3
 1.178175395785686e-15    8    7    5    4
 -0.1430609611831581    8    7    5    5
 -1.222624296725802e-15    8    7    6    3
 -1.060131529003611e-14    8    7    6    4
 -0.1430609611831578    8    7    6    6
 0.04894224598581486    8    7    7    1
 7.501486411209957e-15    8    7    7    2
 -0.1244861628940021    8    7    7    7
 0.02861743640663808    8    7    8    1
 6.356937545803909e-14    8    7    8    2
 0.110656998301102    8    7    8    7
 -0.1052887089199678    8    7    8    8
 0.5168448461741161    8    8    1    1
 1.772046051562448e-13    8    8    2    1
 0.542946825139855    8    8    2    2
 0.4807342905714786    8    8    3    3
 0.4807342905714787    8    8    4    4
 -1.613188749249872e-13    8    8    5    3
 1.907718774618594e-14    8    8    5    4
 0.5009856876602907    8    8    5    5
 -1.93656126291214e-14    8    8    6    3
 -1.613877556442579e-13    8    8    6    4
 0.5009856876602903    8    8    6    6
 -0.01158490846741389    8    8    7    1
 1.373493332956777e-13    8    8    7    2
 0.4904687029355668    8    8    7    7
 -0.0601867972306093    8    8    8    1
 -1.450528065716217e-13    8    8    8    2
 -0.1052887089199672    8    8    8    7
 0.5042321659026218    8    8    8    8
 -5.844709408040897    1    1  0  0
 2.057295065530861e-14    2    1  0  0
 -5.624090742151891    2    2  0  0
 -5.553840891353968    3    3  0  0
 1.282552818377146e-15    4    3  0  0
 -5.55384089135397    4    4  0  0
 -2.401794598702316e-14    5    3  0  0
 1.273307773236832e-15    5    4  0  0
 -5.333634539750346    5    5  0  0
 -2.317199941282481e-15    6    3  0  0
 -3.257736452607985e-14    6    4  0  0
 -5.33363453975034    6    6  0  0
 0.5092594060525786    7    1  0  0
 -3.093423228233406e-14    7    2  0  0
 -4.560313619591353    7    7  0  0
 0.4185711504264115    8    1  0  0
 4.608928370527414e-13    8    2  0  0
 6.857438608357e-15    8    3  0  0
 2.944355385296198e-15    8    4  0  0
 1.441547658998214e-15    8    5  0  0
 1.279867894214864    8    7  0  0
 -3.764198596546066    8    8  0  0
 -117.9386411318373  0  0  0  0
