 &FCI NORB=  12,NELEC=16,MS2=0,
  ORBSYM=1,1,1,1,1,1,1,1,1,1,1,1,
  ISYM=1,
 &END
 0.4163862808447229    1    1    1    1
 2.285505774095286e-12    1    1    2    1
 0.3841680021656264    1    1    2    2
 -1.34470982727227e-09    1    1    3    1
 -4.004414216847593e-12    1    1    3    2
 0.3845787387661251    1    1    3    3
 -5.278335230119945e-12    1    1    4    1
 3.974703843835079e-09    1    1    4    2
 -2.450432141325464e-11    1    1    4    3
 0.3968062472820588    1    1    4    4
 -6.475485292709032e-11    1    1    5    1
 -0.02828840631305706    1    1    5    2
 3.118852568748166e-11    1    1    5    3
 -1.295555637915411e-10    1    1    5    4
 0.2036156505610507    1    1    5    5
 0.0507027126002951    1    1    6    1
 -4.708099067949821e-11    1    1    6    2
 8.029181897440136e-10    1    1    6    3
 4.49327504835881e-11    1    1    6    4
 -1.918287190378856e-13    1    1    6    5
 0.1947949406649646    1    1    6    6
 -3.886385493518183e-15    1    1    7    1
 -1.029736332088241e-14    1    1    7    2
 2.698184075855325e-14    1    1    7    5
 -1.045527831955573e-14    1    1    7    6
 0.221485692551255    1    1    7    7
 -1.014084012125574e-11    1    1    8    1
 6.528158510947727e-10    1    1    8    2
 -7.912739720184602e-11    1    1    8    3
 0.0115770268817386    1    1    8    4
 -1.744612670907653e-09    1    1    8    5
 1.489186787119127e-12    1    1    8    6
 -2.094587486301342e-15    1    1    8    7
 0.2018658037985457    1    1    8    8
 1.26341075246817e-14    1    1    9    1
 1.976546170453331e-14    1    1    9    2
 -1.960618139096353e-14    1    1    9    4
 -4.501983365415862e-14    1    1    9    5
 2.186723380779908e-14    1    1    9    6
 1.086567929600099e-10    1    1    9    7
 -1.798697358436001e-14    1    1    9    8
 0.1921860563462051    1    1    9    9
 9.243465412451965e-09    1    1   10    1
 -5.13269290960732e-11    1    1   10    2
 -0.04763997096576763    1    1   10    3
 -3.093112625737472e-11    1    1   10    4
 1.965058868167633e-11    1    1   10    5
 1.189062072758606e-08    1    1   10    6
 -2.726974336829017e-15    1    1   10    7
 -1.109083936412887e-11    1    1   10    8
 1.588319002107976e-15    1    1   10    9
 0.1895413678095877    1    1   10   10
 -0.03501374436570183    1    1   11    1
 -4.541595862138198e-11    1    1   11    2
 -1.006643717718852e-08    1    1   11    3
 -1.926052742683855e-11    1    1   11    4
 1.69831839177569e-10    1    1   11    5
 -0.05267987872520331    1    1   11    6
 -8.347354924282712e-15    1    1   11    7
 3.070547564830729e-13    1    1   11    8
 1.456840474874879e-15    1    1   11    9
 -9.664684046593899e-10    1    1   11   10
 0.1923398423512051    1    1   11   11
 8.699421297579093e-11    1    1   12    1
 -0.01588180735159984    1    1   12    2
 3.874848959773094e-11    1    1   12    3
 -3.871189719097827e-10    1    1   12    4
 0.02978711827633332    1    1   12    5
 1.786463646042003e-10    1    1   12    6
 -2.647782124969519e-15    1    1   12    7
 -5.259568752454141e-10    1    1   12    8
 -2.377645961074523e-14    1    1   12    9
 6.337158046201103e-12    1    1   12   10
 3.323236550376713e-11    1    1   12   11
 0.1946706921712977    1    1   12   12
 2.285513356395077e-12    2    1    1    1
 0.01742906391062733    2    1    2    1
 -1.105281093332965e-12    2    1    2    2
 2.470421257492487e-10    2    1    3    1
 8.778862999547203e-11    2    1    3    2
 -1.039448750755e-12    2    1    3    3
 4.67457442627486e-10    2    1    4    1
 -2.682416586054878e-10    2    1    4    2
 -0.01700044826906302    2    1    4    3
 1.632316835111412e-12    2    1    4    4
 0.0008360763409074657    2    1    5    1
 -3.081713985248527e-12    2    1    5    2
 5.757245718354063e-11    2    1    5    3
 6.311152541373885e-11    2    1    5    4
 2.049747492396484e-11    2    1    5    5
 -1.941114163891484e-12    2    1    6    1
 0.0009870032582419853    2    1    6    2
 5.939996247956225e-11    2    1    6    3
 4.547900799251292e-11    2    1    6    4
 -0.01017966330161339    2    1    6    5
 -2.227564207932426e-11    2    1    6    6
 1.305177859778752e-15    2    1    7    5
 9.381646421246155e-11    2    1    7    7
 7.728657956766941e-11    2    1    8    1
 -3.82165018542141e-12    2    1    8    2
 0.001891428701075463    2    1    8    3
 6.008586110240602e-12    2    1    8    4
 4.125894974488853e-11    2    1    8    5
 5.503916704296256e-12    2    1    8    6
 -2.183639290013985e-14    2    1    8    7
 2.640855285724115e-11    2    1    8    8
 -3.487411012619612e-15    2    1    9    3
 -2.717045800280516e-15    2    1    9    5
 -1.55375195774586e-15    2    1    9    6
 -0.01180522215296435    2    1    9    7
 -9.3335959531183e-11    2    1    9    9
 -5.35640215504182e-11    2    1   10    1
 -2.06609251889763e-10    2    1   10    2
 -1.623017760382577e-12    2    1   10    3
 0.003016138504384111    2    1   10    4
 -1.167636156050153e-09    2    1   10    5
 -4.289713828205789e-11    2    1   10    6
 0.008887757727211475    2    1   10    8
 -1.608723863401117e-14    2    1   10    9
 -3.08182575630415e-11    2    1   10   10
 4.545794826271319e-12    2    1   11    1
 0.001421720024361732    2    1   11    2
 -6.04394506644936e-11    2    1   11    3
 5.429656039845757e-10    2    1   11    4
 0.00572486210657815    2    1   11    5
 6.261951174671519e-12    2    1   11    6
 -1.118618952721807e-15    2    1   11    7
 1.717055184862465e-09    2    1   11    8
 -4.474829203531764e-15    2    1   11    9
 2.645345960474605e-11    2    1   11   10
 4.237215146966421e-11    2    1   11   11
 -2.411612717727842e-05    2    1   12    1
 -4.230446312563746e-12    2    1   12    2
 4.982387568679828e-11    2    1   12    3
 4.971043346920846e-11    2    1   12    4
 -1.541654795689592e-11    2    1   12    5
 0.0008814121126568622    2    1   12    6
 -1.273178211467647e-14    2    1   12    7
 7.164679047502483e-12    2    1   12    8
 5.392880149702444e-15    2    1   12    9
 -1.086399486323099e-09    2    1   12   10
 0.005640238963362536    2    1   12   11
 -2.864943693298752e-11    2    1   12   12
 0.3841680021656264    2    2    1    1
 -1.105281761765371e-12    2    2    2    1
 0.4130429617434487    2    2    2    2
 7.331979700838428e-10    2    2    3    1
 -4.820598269234339e-11    2    2    3    2
 0.3567934361192543    2    2    3    3
 -4.105606041170188e-11    2    2    4    1
 1.994891641098387e-09    2    2    4    2
 -1.413275012103938e-11    2    2    4    3
 0.4234877548637027    2    2    4    4
 -5.876255474047604e-11    2    2    5    1
 -0.03212461073073664    2    2    5    2
 3.283334930970252e-11    2    2    5    3
 4.344155603894193e-10    2    2    5    4
 0.2027474864451425    2    2    5    5
 0.04215168167009457    2    2    6    1
 -4.890467405248413e-11    2    2    6    2
 1.144647868399927e-09    2    2    6    3
 4.234405070575115e-11    2    2    6    4
 2.059405344043727e-11    2    2    6    5
 0.1904110441443254    2    2    6    6
 -2.455503990641999e-15    2    2    7    1
 -9.708952561452766e-15    2    2    7    2
 2.883861798174066e-14    2    2    7    5
 -1.075401164897926e-14    2    2    7    6
 0.2228406232686463    2    2    7    7
 -1.097054380646827e-11    2    2    8    1
 6.405763888345795e-10    2    2    8    2
 -7.341858100866106e-11    2    2    8    3
 0.01269434114515348    2    2    8    4
 -1.45726214256611e-09    2    2    8    5
 2.304348126809843e-12    2    2    8    6
 -2.707276310386706e-15    2    2    8    7
 0.1963389317567034    2    2    8    8
 9.339286218425068e-15    2    2    9    1
 1.879993335897688e-14    2    2    9    2
 -2.162547192056933e-14    2    2    9    4
 -4.892362000284077e-14    2    2    9    5
 2.137634249018488e-14    2    2    9    6
 1.36625704088374e-10    2    2    9    7
 -9.049869661169953e-15    2    2    9    8
 0.1914335539553589    2    2    9    9
 6.72999383503402e-09    2    2   10    1
 -4.740677405455199e-11    2    2   10    2
 -0.04197622195831619    2    2   10    3
 -3.591382029637166e-11    2    2   10    4
 2.072428776664431e-11    2    2   10    5
 1.122460867841929e-08    2    2   10    6
 -2.938434570339021e-15    2    2   10    7
 -2.72360216103444e-11    2    2   10    8
 2.004452886386093e-15    2    2   10    9
 0.1834749208025141    2    2   10   10
 -0.02624035495219239    2    2   11    1
 -5.446990017032632e-11    2    2   11    2
 -9.213117284919323e-09    2    2   11    3
 -1.401936677117506e-11    2    2   11    4
 1.670275180723049e-10    2    2   11    5
 -0.05134717027796268    2    2   11    6
 -8.360277226864203e-15    2    2   11    7
 -2.525013752317408e-13    2    2   11    8
 1.536164744133497e-15    2    2   11    9
 -1.893176377906455e-09    2    2   11   10
 0.1914960396076518    2    2   11   11
 6.320381356534908e-11    2    2   12    1
 -0.01635078843906181    2    2   12    2
 3.544272061184625e-11    2    2   12    3
 4.152553626901352e-11    2    2   12    4
 0.03233678361481868    2    2   12    5
 1.758626124753077e-10    2    2   12    6
 -1.702545776925308e-15    2    2   12    7
 -5.55422341635053e-10    2    2   12    8
 -2.800163823392527e-14    2    2   12    9
 1.048393475434933e-11    2    2   12   10
 3.142729322229649e-11    2    2   12   11
 0.1961304670282838    2    2   12   12
 -1.344709839417241e-09    3    1    1    1
 2.470421245075146e-10    3    1    2    1
 7.331979916094201e-10    3    1    2    2
 0.1958471468622273    3    1    3    1
 -6.149605921699231e-12    3    1    3    2
 1.07413567893329e-08    3    1    3    3
 -2.746953007719927e-11    3    1    4    1
 -0.1825507832098868    3    1    4    2
 2.697113218543745e-10    3    1    4    3
 4.047307929243446e-09    3    1    4    4
 -8.213451865336243e-12    3    1    5    1
 -1.199813002933439e-09    3    1    5    2
 -6.597470815214894e-11    3    1    5    3
 0.04275566747194063    3    1    5    4
 -8.523543084751885e-10    3    1    5    5
 1.117869877642546e-09    3    1    6    1
 1.463825568678002e-11    3    1    6    2
 0.04709705427852576    3    1    6    3
 5.427316484519627e-11    3    1    6    4
 -1.058858100034341e-11    3    1    6    5
 -1.008017577693729e-09    3    1    6    6
 1.602150351120915e-15    3    1    7    1
 -6.693764109456809e-15    3    1    7    3
 3.366351151043103e-14    3    1    7    4
 2.416485163474343e-15    3    1    7    5
 -1.083988274187954e-09    3    1    7    7
 -6.46115809245486e-11    3    1    8    1
 -0.001511373315059097    3    1    8    2
 4.525485993058541e-12    3    1    8    3
 -8.074382336344885e-10    3    1    8    4
 0.03342052440347022    3    1    8    5
 -2.431872048976435e-11    3    1    8    6
 1.276952329599019e-14    3    1    8    7
 -1.623643355960343e-09    3    1    8    8
 1.220226313120814e-15    3    1    9    2
 1.761656378135987e-14    3    1    9    3
 -5.7581786487857e-14    3    1    9    4
 -6.216228175518058e-14    3    1    9    5
 2.725584735430755e-15    3    1    9    6
 -1.429262353288629e-11    3    1    9    7
 -2.054921995642144e-14    3    1    9    8
 -1.199579914235634e-09    3    1    9    9
 -0.03907060752681514    3    1   10    1
 1.602027300294601e-11    3    1   10    2
 8.12573881991514e-09    3    1   10    3
 -1.456816783286449e-13    3    1   10    4
 -1.551680269287853e-11    3    1   10    5
 -0.0350175403217111    3    1   10    6
 1.683541447794364e-15    3    1   10    7
 2.156728472413849e-11    3    1   10    8
 -4.859806048307653e-15    3    1   10    9
 -8.37315536235119e-09    3    1   10   10
 -8.716132808394361e-09    3    1   11    1
 -2.701240989290951e-11    3    1   11    2
 -0.04535067046563698    3    1   11    3
 1.150851251509648e-10    3    1   11    4
 -8.822199097992382e-13    3    1   11    5
 -7.609357701736671e-09    3    1   11    6
 6.435521726429238e-11    3    1   11    8
 -1.179505731156704e-15    3    1   11    9
 0.01776810776092349    3    1   11   10
 7.052048011006854e-09    3    1   11   11
 4.253740126226578e-12    3    1   12    1
 -4.338486013947339e-10    3    1   12    2
 1.100512327083018e-10    3    1   12    3
 0.03559801178006762    3    1   12    4
 1.591920479098963e-09    3    1   12    5
 3.427008216166761e-11    3    1   12    6
 0.008773833846927936    3    1   12    8
 -1.581379607961126e-14    3    1   12    9
 -6.086513440986436e-11    3    1   12   10
 -8.252933011241455e-12    3    1   12   11
 -5.824398729140452e-10    3    1   12   12
 -4.004412073424717e-12    3    2    1    1
 8.77886318768038e-11    3    2    2    1
 -4.820598352583257e-11    3    2    2    2
 -6.149605183635499e-12    3    2    3    1
 0.0119644950448472    3    2    3    2
 -6.576865556903389e-12    3    2    3    3
 -0.01328658429190166    3    2    4    1
 4.844476097502008e-12    3    2    4    2
 -3.69679020966444e-10    3    2    4    3
 -7.755916226136955e-11    3    2    4    4
 -1.495767745528229e-10    3    2    5    1
 1.262194568690445e-11    3    2    5    2
 -0.002134370972745626    3    2    5    3
 3.902824808211578e-12    3    2    5    4
 1.423192539202669e-11    3    2    5    5
 -7.391135603684608e-12    3    2    6    1
 1.487541290514249e-10    3    2    6    2
 -4.58139668128706e-12    3    2    6    3
 -0.003448920917188185    3    2    6    4
 4.062019014259885e-10    3    2    6    5
 2.061058455282561e-11    3    2    6    6
 -1.39341689399812e-15    3    2    7    3
 7.856224267667966e-12    3    2    7    7
 0.0001431917334657066    3    2    8    1
 -5.325267820138758e-12    3    2    8    2
 -2.052291871015621e-11    3    2    8    3
 -5.011205894540297e-12    3    2    8    4
 2.781891033123516e-13    3    2    8    5
 -0.000732123260105712    3    2    8    6
 1.907780951753121e-11    3    2    8    8
 2.442923368690643e-15    3    2    9    3
 -1.168708861089939e-15    3    2    9    4
 1.146095972187496e-15    3    2    9    6
 3.266662747173004e-10    3    2    9    7
 1.724187729780411e-11    3    2    9    9
 1.61855157003314e-12    3    2   10    1
 -0.002746192830004725    3    2   10    2
 4.96993407266212e-12    3    2   10    3
 -5.68270476134948e-10    3    2   10    4
 0.001082499661709872    3    2   10    5
 4.993802752019359e-12    3    2   10    6
 -6.290556305816912e-10    3    2   10    8
 1.891011371305708e-11    3    2   10   10
 2.832346714834733e-12    3    2   11    1
 -6.708061823937248e-10    3    2   11    2
 -3.384428294346474e-12    3    2   11    3
 0.003029283402588225    3    2   11    4
 2.150745993947669e-10    3    2   11    5
 1.16147736854736e-12    3    2   11    6
 0.001010980768492336    3    2   11    8
 -1.727514121096698e-15    3    2   11    9
 -9.640589592118939e-13    3    2   11   10
 6.372888267089868e-12    3    2   11   11
 1.68436687496699e-11    3    2   12    1
 4.524882973226629e-12    3    2   12    2
 -0.001612597428335598    3    2   12    3
 -8.275397831201418e-12    3    2   12    4
 -2.161483401198597e-11    3    2   12    5
 -3.278730791752572e-10    3    2   12    6
 -2.317385118260155e-12    3    2   12    8
 0.0004422726652523702    3    2   12   10
 5.255765475936827e-11    3    2   12   11
 8.630046170009518e-12    3    2   12   12
 0.3845787387661252    3    3    1    1
 -1.039447537785212e-12    3    3    2    1
 0.3567934361192543    3    3    2    2
 1.074135681609681e-08    3    3    3    1
 -6.576860479148197e-12    3    3    3    2
 0.3763807724799167    3    3    3    3
 2.573950513245594e-11    3    3    4    1
 -9.003921280736728e-09    3    3    4    2
 -1.037169144545621e-11    3    3    4    3
 0.3708340825968602    3    3    4    4
 -5.351973579438373e-11    3    3    5    1
 -0.02196345665349688    3    3    5    2
 3.051040766476437e-11    3    3    5    3
 2.821121742445922e-09    3    3    5    4
 0.2111588098944182    3    3    5    5
 0.04091330328086354    3    3    6    1
 -3.620967147769956e-11    3    3    6    2
 3.886161410220029e-09    3    3    6    3
 4.527760461574367e-11    3    3    6    4
 2.00600352722891e-12    3    3    6    5
 0.2048146178799967    3    3    6    6
 -2.881557298091769e-15    3    3    7    1
 -8.159265524555772e-15    3    3    7    2
 1.674674824918426e-14    3    3    7    5
 -1.084328989242372e-14    3    3    7    6
 0.2255102391321571    3    3    7    7
 -8.478230062394294e-12    3    3    8    1
 4.101537657426785e-10    3    3    8    2
 -7.023589807900603e-11    3    3    8    3
 0.008917349145228706    3    3    8    4
 8.625498658367126e-10    3    3    8    5
 3.653515258153943e-12    3    3    8    6
 -1.865898984762864e-15    3    3    8    7
 0.2100175270366337    3    3    8    8
 9.955669355648106e-15    3    3    9    1
 1.589463576149889e-14    3    3    9    2
 -1.479175281062115e-14    3    3    9    4
 -2.765729078158173e-14    3    3    9    5
 2.17844583663423e-14    3    3    9    6
 9.489360704906236e-11    3    3    9    7
 -1.62210716046599e-14    3    3    9    8
 0.2012004443425205    3    3    9    9
 4.943882701123359e-09    3    3   10    1
 -3.939289782727363e-11    3    3   10    2
 -0.04196860352583411    3    3   10    3
 -2.543352717473043e-11    3    3   10    4
 1.014041612791741e-11    3    3   10    5
 8.888684910285887e-09    3    3   10    6
 -2.541540246580247e-15    3    3   10    7
 -1.730470094071919e-11    3    3   10    8
 1.772581746168623e-15    3    3   10    9
 0.1970286118965104    3    3   10   10
 -0.02784613385785262    3    3   11    1
 -4.014373765351066e-11    3    3   11    2
 -1.199578053891158e-08    3    3   11    3
 -2.228245416172846e-11    3    3   11    4
 1.30997505329383e-10    3    3   11    5
 -0.05069728423450016    3    3   11    6
 -8.255599256264232e-15    3    3   11    7
 -2.22702691483653e-12    3    3   11    8
 4.025619067017903e-15    3    3   11    9
 1.319721067462106e-09    3    3   11   10
 0.1948456112182232    3    3   11   11
 6.723085115211545e-11    3    3   12    1
 -0.0136114324696836    3    3   12    2
 3.957276608979013e-11    3    3   12    3
 2.193493649349018e-09    3    3   12    4
 0.01772808201901586    3    3   12    5
 1.622810243262642e-10    3    3   12    6
 -2.163728265763244e-15    3    3   12    7
 8.052479715272358e-11    3    3   12    8
 -1.909976586426972e-14    3    3   12    9
 3.981465400922717e-12    3    3   12   10
 3.829204685363071e-11    3    3   12   11
 0.2004198041975925    3    3   12   12
 -5.278337395667444e-12    4    1    1    1
 4.674574392833999e-10    4    1    2    1
 -4.105605638135526e-11    4    1    2    2
 -2.746952880816644e-11    4    1    3    1
 -0.01328658429190166    4    1    3    2
 2.57395030275512e-11    4    1    3    3
 0.01587589418630897    4    1    4    1
 2.725748709098455e-11    4    1    4    2
 -2.945442937369745e-10    4    1    4    3
 -7.783083640945556e-12    4    1    4    4
 2.619086097249308e-10    4    1    5    1
 6.811173231501497e-12    4    1    5    2
 0.003057872168319391    4    1    5    3
 -1.205195993143858e-11    4    1    5    4
 -3.195105435057237e-12    4    1    5    5
 2.195171002868521e-12    4    1    6    1
 -1.887510566620369e-10    4    1    6    2
 -2.375982250466578e-12    4    1    6    3
 0.003969812186204821    4    1    6    4
 -1.118130433280955e-09    4    1    6    5
 -1.602591439670395e-12    4    1    6    6
 2.426689187061831e-15    4    1    7    3
 -9.984934790252207e-13    4    1    7    7
 3.958338963621775e-06    4    1    8    1
 5.883558647954464e-12    4    1    8    2
 1.237632825131444e-10    4    1    8    3
 -1.931331471548948e-12    4    1    8    4
 -7.098490767519809e-12    4    1    8    5
 0.001145961126076415    4    1    8    6
 -1.675711312666935e-13    4    1    8    8
 -4.184109486195588e-15    4    1    9    3
 1.24156866985842e-15    4    1    9    4
 -2.042271009900851e-15    4    1    9    6
 -1.049646901220566e-09    4    1    9    7
 -1.588987231380514e-12    4    1    9    9
 4.669768492780941e-12    4    1   10    1
 0.002828413153508562    4    1   10    2
 -1.583993618791951e-12    4    1   10    3
 6.866057339907341e-10    4    1   10    4
 -0.001624051237455181    4    1   10    5
 -5.124231718386086e-13    4    1   10    6
 1.391403539012938e-09    4    1   10    8
 1.503230029976233e-15    4    1   10    9
 -1.81659055002918e-12    4    1   10   10
 -7.732952443212333e-13    4    1   11    1
 7.987945981428149e-10    4    1   11    2
 1.409105397381161e-11    4    1   11    3
 -0.003150537758389737    4    1   11    4
 -6.557436392924641e-11    4    1   11    5
 -1.201503793621485e-12    4    1   11    6
 -0.0014973001972192    4    1   11    8
 2.725040533496415e-15    4    1   11    9
 -2.737997619597076e-12    4    1   11   10
 -2.070480919657266e-13    4    1   11   11
 -3.475497238754447e-11    4    1   12    1
 4.865472023316646e-12    4    1   12    2
 0.002615333790817001    4    1   12    3
 2.331806912155286e-12    4    1   12    4
 3.351262187791267e-12    4    1   12    5
 5.762100845864427e-10    4    1   12    6
 1.321332402677978e-12    4    1   12    8
 -0.0009150578744042573    4    1   12   10
 1.208312894744633e-10    4    1   12   11
 -2.650365963833793e-12    4    1   12   12
 3.974703817406821e-09    4    2    1    1
 -2.682416580835669e-10    4    2    2    1
 1.994891577971564e-09    4    2    2    2
 -0.1825507832098868    4    2    3    1
 4.844475183943139e-12    4    2    3    2
 -9.003921329213302e-09    4    2    3    3
 2.725748589708632e-11    4    2    4    1
 0.2243352329053886    4    2    4    2
 -2.92664583528036e-10    4    2    4    3
 -2.005501112021491e-09    4    2    4    4
 1.578869054752275e-11    4    2    5    1
 6.364288090956596e-10    4    2    5    2
 6.28323717181842e-11    4    2    5    3
 -0.05255086371646863    4    2    5    4
 7.251014619272592e-11    4    2    5    5
 -1.055932452131468e-10    4    2    6    1
 -9.603688086466959e-12    4    2    6    2
 -0.04440717848435824    4    2    6    3
 -6.863553944307502e-11    4    2    6    4
 9.886551526877184e-12    4    2    6    5
 1.639042483021464e-10    4    2    6    6
 -1.483005821839852e-15    4    2    7    1
 6.262733128545551e-15    4    2    7    3
 -4.034772776518282e-14    4    2    7    4
 -2.422283413585781e-15    4    2    7    5
 1.035991083138321e-15    4    2    7    6
 4.750281904164658e-10    4    2    7    7
 6.299920259732441e-11    4    2    8    1
 0.004187507972843459    4    2    8    2
 -6.815139050500059e-12    4    2    8    3
 1.227230926893746e-09    4    2    8    4
 -0.03164546174344368    4    2    8    5
 1.975958251067909e-11    4    2    8    6
 -1.354872000141788e-14    4    2    8    7
 9.584662579089654e-10    4    2    8    8
 -5.923596164761508e-15    4    2    9    2
 -1.659788215011997e-14    4    2    9    3
 6.909077017408572e-14    4    2    9    4
 5.890559998856259e-14    4    2    9    5
 -2.742521708602134e-15    4    2    9    6
 1.500534146941464e-11    4    2    9    7
 2.208946076309293e-14    4    2    9    8
 2.562731559560332e-10    4    2    9    9
 0.03719668928637283    4    2   10    1
 -2.35520720917831e-11    4    2   10    2
 -8.190023787455297e-09    4    2   10    3
 -6.024134392999607e-12    4    2   10    4
 1.794331124620081e-11    4    2   10    5
 0.0322166287951456    4    2   10    6
 -1.679596980804554e-15    4    2   10    7
 -2.18356732058778e-11    4    2   10    8
 4.449248374921122e-15    4    2   10    9
 7.202370928217064e-09    4    2   10   10
 7.491328378843767e-09    4    2   11    1
 2.402466070916093e-11    4    2   11    2
 0.042794595693006    4    2   11    3
 -1.382111507866291e-10    4    2   11    4
 1.049267168687912e-13    4    2   11    5
 6.946028693387507e-09    4    2   11    6
 -6.284507840222771e-11    4    2   11    8
 1.298792929087465e-15    4    2   11    9
 -0.01637362889114639    4    2   11   10
 -6.826154131147104e-09    4    2   11   11
 1.723600523383709e-12    4    2   12    1
 1.413783764512765e-10    4    2   12    2
 -1.037366053924877e-10    4    2   12    3
 -0.04289999030389138    4    2   12    4
 -7.221507579326412e-10    4    2   12    5
 -3.24149003622205e-11    4    2   12    6
 -0.009874730629289272    4    2   12    8
 1.785157854047624e-14    4    2   12    9
 5.966690209802295e-11    4    2   12   10
 6.88314994745345e-12    4    2   12   11
 -1.887427413975014e-11    4    2   12   12
 -2.450432840336073e-11    4    3    1    1
 -0.01700044826906302    4    3    2    1
 -1.413274556258194e-11    4    3    2    2
 2.697113216166665e-10    4    3    3    1
 -3.696790197568538e-10    4    3    3    2
 -1.03716957197462e-11    4    3    3    3
 -2.945442963356716e-10    4    3    4    1
 -2.926645866235374e-10    4    3    4    2
 0.02264866823972097    4    3    4    3
 -1.592897017351976e-11    4    3    4    4
 -0.001734005396210999    4    3    5    1
 7.752908608907848e-12    4    3    5    2
 2.752395887093795e-11    4    3    5    3
 6.896110893567528e-11    4    3    5    4
 -3.384856204189079e-11    4    3    5    5
 -6.135141929252301e-12    4    3    6    1
 -1.908896082204117e-05    4    3    6    2
 6.659914619034497e-11    4    3    6    3
 1.081350708100182e-10    4    3    6    4
 0.01850944167807974    4    3    6    5
 4.300592543384193e-11    4    3    6    6
 -1.813632892606348e-15    4    3    7    5
 -5.33316596390383e-15    4    3    7    6
 -1.37004704408404e-10    4    3    7    7
 -5.664607231826825e-11    4    3    8    1
 -5.134802237377234e-12    4    3    8    2
 -0.002832058842276768    4    3    8    3
 -8.801439908397593e-12    4    3    8    4
 4.921129522463423e-11    4    3    8    5
 1.048422508422917e-10    4    3    8    6
 3.280905393564701e-14    4    3    8    7
 -4.742132913350426e-11    4    3    8    8
 -1.397847794751586e-15    4    3    9    1
 5.304543245105218e-15    4    3    9    3
 3.420275303892124e-15    4    3    9    5
 9.100387374213451e-15    4    3    9    6
 0.01781127411107479    4    3    9    7
 1.457317997036241e-10    4    3    9    9
 -5.134670453368733e-11    4    3   10    1
 4.045692177094667e-10    4    3   10    2
 7.786548246067641e-12    4    3   10    3
 -0.00325005125000373    4    3   10    4
 1.272946243544741e-09    4    3   10    5
 -5.377735104046637e-11    4    3   10    6
 -0.01663337179127288    4    3   10    8
 3.028873913339708e-14    4    3   10    9
 5.835989298399881e-11    4    3   10   10
 5.702539161246198e-12    4    3   11    1
 -0.001853098856326042    4    3   11    2
 -6.155519645582178e-11    4    3   11    3
 -7.476157577542492e-10    4    3   11    4
 -0.00657907959305009    4    3   11    5
 -2.166867980056812e-11    4    3   11    6
 3.591595884579713e-15    4    3   11    7
 -3.315483555011605e-09    4    3   11    8
 3.728224610341205e-15    4    3   11    9
 1.907309323622139e-11    4    3   11   10
 -5.319909693259233e-11    4    3   11   11
 0.001372078637315587    4    3   12    1
 8.942035572867472e-12    4    3   12    2
 1.279856985442448e-10    4    3   12    3
 6.173210526511106e-11    4    3   12    4
 1.900132495967681e-11    4    3   12    5
 -0.006416649822356939    4    3   12    6
 1.942699417359242e-14    4    3   12    7
 2.25465934878098e-11    4    3   12    8
 -8.745453213794104e-15    4    3   12    9
 1.320805260247773e-09    4    3   12   10
 -0.007194622285115695    4    3   12   11
 3.84023378087911e-11    4    3   12   12
 0.3968062472820588    4    4    1    1
 1.632304077304427e-12    4    4    2    1
 0.4234877548637026    4    4    2    2
 4.047307879969888e-09    4    4    3    1
 -7.755916315167865e-11    4    4    3    2
 0.3708340825968603    4    4    3    3
 -7.783088816769868e-12    4    4    4    1
 -2.005501206141213e-09    4    4    4    2
 -1.592896867232811e-11    4    4    4    3
 0.4423877885509043    4    4    4    4
 -6.753750538493754e-11    4    4    5    1
 -0.03856453236851778    4    4    5    2
 4.636033453178453e-11    4    4    5    3
 1.516960283291857e-09    4    4    5    4
 0.2028786412952155    4    4    5    5
 0.04751971329881573    4    4    6    1
 -5.682212834961098e-11    4    4    6    2
 2.137437406567885e-09    4    4    6    3
 5.736658996736855e-11    4    4    6    4
 2.330361742770527e-11    4    4    6    5
 0.1908250961219999    4    4    6    6
 -3.374480530107841e-15    4    4    7    1
 -1.694078536574183e-14    4    4    7    2
 2.845931329254773e-14    4    4    7    5
 -1.038615068755823e-14    4    4    7    6
 0.2178966548389208    4    4    7    7
 -1.143753720365854e-11    4    4    8    1
 7.450072064928347e-10    4    4    8    2
 -8.124796500395572e-11    4    4    8    3
 0.0152271743560296    4    4    8    4
 -8.380628319962726e-10    4    4    8    5
 4.416735107324193e-12    4    4    8    6
 -2.304553249828566e-15    4    4    8    7
 0.1962367966238185    4    4    8    8
 1.17504676952725e-14    4    4    9    1
 3.104856249999301e-14    4    4    9    2
 -2.602564873844015e-14    4    4    9    4
 -4.803910296712075e-14    4    4    9    5
 2.084276078956146e-14    4    4    9    6
 1.318814141644663e-10    4    4    9    7
 -1.524122550127166e-14    4    4    9    8
 0.1879975086461907    4    4    9    9
 7.433117573053244e-09    4    4   10    1
 -4.726334691114299e-11    4    4   10    2
 -0.04599910069459017    4    4   10    3
 -4.06589653546138e-11    4    4   10    4
 1.670908047381025e-11    4    4   10    5
 1.03642257067343e-08    4    4   10    6
 -2.697225530329688e-15    4    4   10    7
 -2.853401773421828e-11    4    4   10    8
 1.597932376890879e-15    4    4   10    9
 0.1844653929499745    4    4   10   10
 -0.03252548091908334    4    4   11    1
 -7.649230270907793e-11    4    4   11    2
 -1.105539762933963e-08    4    4   11    3
 -2.733650420572227e-11    4    4   11    4
 1.632544808488486e-10    4    4   11    5
 -0.05022907005691066    4    4   11    6
 -7.908074820278492e-15    4    4   11    7