 &FCI NORB=   8,NELEC= 8,MS2=0,
  ORBSYM=1,1,1,1,1,1,1,1,
  ISYM=1,
 &END
 0.3458928012367682    1    1    1    1
 2.557788149512171e-11    1    1    2    1
 0.3287907237445949    1    1    2    2
 0.3099574428660178    1    1    3    3
 2.242394117613067e-11    1    1    4    3
 0.3177198279545552    1    1    4    4
 2.53735715040847e-11    1    1    5    3
 2.781646403947877e-07    1    1    5    4
 0.2814537090142387    1    1    5    5
 -0.01574127382475256    1    1    6    3
 -2.367358175811574e-11    1    1    6    4
 2.854313249832954e-11    1    1    6    5
 0.2910795024622916    1    1    6    6
 4.197400581034406e-12    1    1    7    1
 2.007338755304265e-08    1    1    7    2
 0.1894309446969738    1    1    7    7
 3.403619282306456e-08    1    1    8    1
 -1.543169184017174e-11    1    1    8    2
 -1.106649366359702e-15    1    1    8    6
 -2.16799965566561e-11    1    1    8    7
 0.2001109100701935    1    1    8    8
 2.557785028122259e-11    2    1    1    1
 0.06076589538047728    2    1    2    1
 -2.22212833738673e-11    2    1    2    2
 2.624598587999055e-12    2    1    3    3
 -6.042724298048272e-07    2    1    4    3
 -2.923704895763444e-12    2    1    4    4
 0.05286788148336118    2    1    5    3
 1.251877390805035e-11    2    1    5    4
 1.256717559264408e-11    2    1    5    5
 4.136924059767553e-12    2    1    6    3
 -4.570843985766251e-07    2    1    6    4
 0.05638049892613889    2    1    6    5
 -9.920929007307795e-13    2    1    6    6
 5.807667644444455e-09    2    1    7    1
 1.089578955586119e-11    2    1    7    2
 3.017918710703973e-11    2    1    7    7
 -1.740861888960839e-12    2    1    8    1
 1.610981983493216e-07    2    1    8    2
 -0.0363187780542588    2    1    8    7
 -2.200345370414251e-11    2    1    8    8
 0.3287907237445948    2    2    1    1
 -2.222124093006192e-11    2    2    2    1
 0.3629460809052525    2    2    2    2
 0.3192134305687571    2    2    3    3
 3.720597972507039e-11    2    2    4    3
 0.3066480563866345    2    2    4    4
 -2.577962954996339e-11    2    2    5    3
 -1.444831739698777e-07    2    2    5    4
 0.3173901348797818    2    2    5    5
 0.007736159234809677    2    2    6    3
 -2.344959686498282e-11    2    2    6    4
 -2.795819884686579e-11    2    2    6    5
 0.3041024944635844    2    2    6    6
 1.079940822751535e-11    2    2    7    1
 5.714889238864819e-09    2    2    7    2
 0.2063542767793335    2    2    7    7
 1.14926878368032e-07    2    2    8    1
 -1.926431887275259e-11    2    2    8    2
 -1.086116870504987e-15    2    2    8    6
 1.466427174186078e-11    2    2    8    7
 0.215351443129371    2    2    8    8
 0.009038298481354743    3    1    3    1
 7.238040581558576e-14    3    1    3    2
 1.574352171322678e-12    3    1    4    1
 -8.290673269321725e-08    3    1    4    2
 3.07100111858821e-12    3    1    5    1
 0.006758961027254692    3    1    5    2
 -0.001269122153904437    3    1    6    1
 4.838407713102794e-13    3    1    6    2
 -1.961288060890141e-12    3    1    7    3
 0.002286304839119363    3    1    7    4
 2.984920710411819e-08    3    1    7    5
 2.507104223898671e-12    3    1    7    6
 -9.475526187734794e-09    3    1    8    3
 5.222370828355474e-14    3    1    8    4
 5.539122171695819e-14    3    1    8    5
 9.829402758950488e-09    3    1    8    6
 7.238332479085704e-14    3    2    3    1
 0.009346689841055944    3    2    3    2
 -7.542918265321659e-08    3    2    4    1
 4.808497988957714e-12    3    2    4    2
 0.006039173362544754    3    2    5    1
 -3.156956321031826e-12    3    2    5    2
 4.701761206283215e-13    3    2    6    1
 0.001504552580875284    3    2    6    2
 6.395942192896872e-10    3    2    7    3
 4.513196264264503e-13    3    2    7    4
 5.615041789992885e-13    3    2    7    5
 4.133765875967395e-09    3    2    7    6
 1.069308866712831e-12    3    2    8    3
 -0.00307978591639227    3    2    8    4
 -1.715433261739765e-08    3    2    8    5
 4.71314034620942e-13    3    2    8    6
 0.3099574428660179    3    3    1    1
 2.624608609136951e-12    3    3    2    1
 0.3192134305687571    3    3    2    2
 0.3283733979346559    3    3    3    3
 -3.482916494275401e-11    3    3    4    3
 0.3250725510481979    3    3    4    4
 6.009017507323733e-13    3    3    5    3
 1.542768998127097e-07    3    3    5    4
 0.303470994978395    3    3    5    5
 -0.007736517963318902    3    3    6    3
 2.705270751336697e-11    3    3    6    4
 1.383298719556741e-12    3    3    6    5
 0.3025207161233895    3    3    6    6
 -1.932970327074244e-12    3    3    7    1
 9.272617458338351e-09    3    3    7    2
 0.1925253521184814    3    3    7    7
 4.756539497270206e-08    3    3    8    1
 2.508203605748605e-12    3    3    8    2
 -1.218556916513984e-15    3    3    8    6
 -3.522371334455342e-12    3    3    8    7
 0.2005002586700103    3    3    8    8
 1.574350988637183e-12    4    1    3    1
 -7.542918265369382e-08    4    1    3    2
 0.01060127308992209    4    1    4    1
 -6.351889430662688e-13    4    1    4    2
 2.864011104037176e-08    4    1    5    1
 3.245477753388303e-12    4    1    5    2
 -1.45279426896352e-12    4    1    6    1
 -3.266501110496288e-08    4    1    6    2
 0.001552218410441153    4    1    7    3
 -2.15579216160573e-12    4    1    7    4
 -1.025330910363602e-12    4    1    7    5
 -0.003260399910754059    4    1    7    6
 8.7420456864315e-14    4    1    8    3
 -1.918350084330874e-08    4    1    8    4
 0.00121915717368537    4    1    8    5
 -2.796577972427816e-13    4    1    8    6
 -8.29067326931364e-08    4    2    3    1
 4.808497989804747e-12    4    2    3    2
 -6.351892575341329e-13    4    2    4    1
 0.008360040176359121    4    2    4    2
 2.445489994928285e-12    4    2    5    1
 -2.642013519058951e-08    4    2    5    2
 -3.883861354954489e-08    4    2    6    1
 -3.773699221490921e-13    4    2    6    2
 2.084295646642578e-13    4    2    7    3
 9.671574933860398e-09    4    2    7    4
 -0.001866134573339489    4    2    7    5
 -3.581294777709447e-13    4    2    7    6
 -0.001916304044369755    4    2    8    3
 -1.154087330530133e-12    4    2    8    4
 -7.888980800999587e-13    4    2    8    5
 0.003698234645455149    4    2    8    6
 2.242394679371584e-11    4    3    1    1
 -6.042724298217153e-07    4    3    2    1
 3.720595331119497e-11    4    3    2    2
 -3.482919966432858e-11    4    3    3    3
 0.09840028688670452    4    3    4    3
 1.865848632282702e-11    4    3    4    4
 2.306876423395493e-07    4    3    5    3
 -3.615733736931351e-12    4    3    5    4
 8.400459770151438e-12    4    3    5    5
 2.018624243455003e-11    4    3    6    3
 -0.07987059402678559    4    3    6    4
 -1.458975474750627e-06    4    3    6    5
 4.131112498525352e-12    4    3    6    6
 0.01031685707385912    4    3    7    1
 6.384326725995936e-12    4    3    7    2
 -1.427830457352833e-11    4    3    7    7
 -2.731417004102955e-12    4    3    8    1
 -0.02584567070177752    4    3    8    2
 3.396458949116863e-07    4    3    8    7
 -3.875335883901827e-12    4    3    8    8
 0.3177198279545551    4    4    1    1
 -2.923722880688178e-12    4    4    2    1
 0.3066480563866343    4    4    2    2
 0.325072551048198    4    4    3    3
 1.865849347856136e-11    4    4    4    3
 0.3615538152215464    4    4    4    4
 -2.173570143932926e-12    4    4    5    3
 8.530570194185588e-07    4    4    5    4
 0.2578802043230609    4    4    5    5
 -0.04883336660573415    4    4    6    3
 -3.060964372594843e-11    4    4    6    4
 1.920173960167365e-12    4    4    6    5
 0.2950560427987904    4    4    6    6
 -1.379726240171218e-12    4    4    7    1
 3.806470121965844e-08    4    4    7    2
 0.1777765518355691    4    4    7    7
 1.413287093976486e-09    4    4    8    1
 -1.382067285051955e-11    4    4    8    2
 -1.246367317243457e-15    4    4    8    6
 -4.989674827953205e-12    4    4    8    7
 0.1918113634030113    4    4    8    8
 3.071001545302181e-12    5    1    3    1
 0.006039173362544752    5    1    3    2
 2.864011104031961e-08    5    1    4    1
 2.445489397401091e-12    5    1    4    2
 0.005352659589234502    5    1    5    1
 1.496503836761252e-12    5    1    5    2
 1.978563959565033e-12    5    1    6    1
 0.003681562564944951    5    1    6    2
 1.651505399412773e-08    5    1    7    3
 4.088375943929331e-13    5    1    7    4
 1.312684209060748e-12    5    1    7    5
 -1.847127354618809e-08    5    1    7    6
 2.337749296893088e-13    5    1    8    3
 -0.0007043116213148433    5    1    8    4
 1.178319356812186e-08    5    1    8    5
 4.660686962741926e-14    5    1    8    6
 0.006758961027254692    5    2    3    1
 -3.156956730311939e-12    5    2    3    2
 3.245477077984107e-12    5    2    4    1
 -2.642013519075024e-08    5    2    4    2
 1.496503333226064e-12    5    2    5    1
 0.01049542637770285    5    2    5    2
 0.004226014885692028    5    2    6    1
 -2.072214393647277e-12    5    2    6    2
 -4.357071417400191e-14    5    2    7    3
 0.0008796009886263658    5    2    7    4
 -6.891366430743536e-09    5    2    7    5
 9.392824882588512e-13    5    2    7    6
 -1.415488915325781e-08    5    2    8    3
 5.87492182642831e-13    5    2    8    4
 9.240141432565405e-13    5    2    8    5
 5.633010962274009e-08    5    2    8    6
 2.537360763285859e-11    5    3    1    1
 0.05286788148336114    5    3    2    1
 -2.577962392834303e-11    5    3    2    2
 6.00894397487157e-13    5    3    3    3
 2.306876423495678e-07    5    3    4    3
 -2.173569278435653e-12    5    3    4    4
 0.06965335581082947    5    3    5    3
 1.342882546579994e-11    5    3    5    4
 7.785399094763737e-12    5    3    5    5
 1.25213314227794e-13    5    3    6    3
 -1.445254061352142e-06    5    3    6    4
 0.07713884496447758    5    3    6    5
 -5.143059250450938e-12    5    3    6    6
 1.111122720593417e-07    5    3    7    1
 1.215993398019912e-11    5    3    7    2
 3.35330498116127e-11    5    3    7    7
 -1.341902794673996e-12    5    3    8    1
 -9.867150166552709e-08    5    3    8    2
 -0.04538703913573208    5    3    8    7
 -3.149660898448664e-11    5    3    8    8
 2.781646403759367e-07    5    4    1    1
 1.251877370962177e-11    5    4    2    1
 -1.44483173976438e-07    5    4    2    2
 1.54276899814694e-07    5    4    3    3
 -3.615736415538217e-12    5    4    4    3
 8.530570194184348e-07    5    4    4    4
 1.342882332513593e-11    5    4    5    3
 0.003648188703294183    5    4    5    4
 -8.080951753294054e-07    5    4    5    5
 -8.821489601362314e-07    5    4    6    3
 2.969715722096532e-12    5    4    6    4
 1.564643667921825e-11    5    4    6    5
 -1.192009543023332e-07    5    4    6    6
 -8.816534875710091e-13    5    4    7    1
 -0.001247073318387205    5    4    7    2
 -3.372110013518152e-07    5    4    7    7
 0.0004161388523998021    5    4    8    1
 4.931355740772747e-13    5    4    8    2
 -8.857516731109271e-12    5    4    8    7
 -2.120601795663461e-07    5    4    8    8
 0.2814537090142387    5    5    1    1
 1.25672189631714e-11    5    5    2    1
 0.317390134879782    5    5    2    2
 0.3034709949783951    5    5    3    3
 8.400463592968255e-12    5    5    4    3
 0.2578802043230611    5    5    4    4
 7.785432206853088e-12    5    5    5    3
 -8.080951753069272e-07    5    5    5    4
 0.3489092458696144    5    5    5    5
 0.04661167591695661    5    5    6    3
 1.006730853195248e-11    5    5    6    4
 5.191915301490386e-12    5    5    6    5
 0.3045900003936448    5    5    6    6
 1.196724937581468e-11    5    5    7    1
 -2.517741062027343e-08    5    5    7    2
 0.2133883376757439    5    5    7    7
 1.3021370729354e-07    5    5    8    1
 -6.094114769024037e-12    5    5    8    2
 -1.066462326558265e-15    5    5    8    6
 -4.56724115919248e-12    5    5    8    7
 0.2143258877853469    5    5    8    8
 -0.001269122153904438    6    1    3    1
 4.701744601874344e-13    6    1    3    2
 -1.452793720004863e-12    6    1    4    1
 -3.883861354984509e-08    6    1    4    2
 1.978564386060716e-12    6    1    5    1
 0.004226014885692026    6    1    5    2
 0.005774558163875106    6    1    6    1
 -3.444494932811111e-13    6    1    6    2
 1.318557252722201e-12    6    1    7    3
 -0.0008201798697645271    6    1    7    4
 -1.827324223565169e-09    6    1    7    5
 3.869547521626439e-13    6    1    7    6
 4.555059260126695e-09    6    1    8    3
 1.865039599579632e-13    6    1    8    4
 -8.179939361794403e-14    6    1    8    5
 4.874151413318428e-09    6    1    8    6
 4.838400108808466e-13    6    2    3    1
 0.001504552580875285    6    2    3    2
 -3.266501110610865e-08    6    2    4    1
 -3.773705684352309e-13    6    2    4    2
 0.003681562564944951    6    2    5    1
 -2.072215703106795e-12    6    2    5    2
 -3.444486968550721e-13    6    2    6    1
 0.005414154370055252    6    2    6    2
 1.182183511949868e-09    6    2    7    3
 -4.171945308715376e-13    6    2    7    4
 8.41103841996269e-13    6    2    7    5
 6.085471592078079e-10    6    2    7    6
 1.708913340223443e-13    6    2    8    3
 0.00180772228281982    6    2    8    4
 3.000532741170868e-08    6    2    8    5
 1.490946174029575e-13    6    2    8    6
 -0.01574127382475256    6    3    1    1
 4.13693918906859e-12    6    3    2    1
 0.007736159234809593    6    3    2    2
 -0.007736517963318876    6    3    3    3
 2.018623850431715e-11    6    3    4    3
 -0.0488333666057342    6    3    4    4
 1.252222298695357e-13    6    3    5    3
 -8.821489601293641e-07    6    3    5    4
 0.04661167591695664    6    3    5    5
 0.04695088197938421    6    3    6    3
 -1.06589783115292e-12    6    3    6    4
 -3.879178245178784e-12    6    3    6    5
 0.00594062783535108    6    3    6    6
 9.232380693196147e-12    6    3    7    1
 -7.554536737593665e-09    6    3    7    2
 0.01758520323388379    6    3    7    7
 5.44625519793362e-08    6    3    8    1
 -3.041924717217363e-12    6    3    8    2
 3.497289430867531e-12    6    3    8    7
 0.01112990591617613    6    3    8    8
 -2.367361029329477e-11    6    4    1    1
 -4.570843985580871e-07    6    4    2    1
 -2.344959477789364e-11    6    4    2    2
 2.705270756757708e-11    6    4    3    3
 -0.07987059402678562    6    4    4    3
 -3.060963694968485e-11    6    4    4    4
 -1.445254061347866e-06    6    4    5    3
 2.96971313855588e-12    6    4    5    4
 1.00673143653814e-11    6    4    5    5
 -1.065898508779278e-12    6    4    6    3
 0.06943674485200492    6    4    6    4
 -2.161367805960547e-07    6    4    6    5
 -9.064834928691756e-13    6    4    6    6
 -0.009601550366758528    6    4    7    1
 -5.323429465234329e-12    6    4    7    2
 1.689201872550672e-11    6    4    7    7
 2.10840977995709e-12    6    4    8    1
 0.02232829641309801    6    4    8    2
 5.818043139893365e-07    6    4    8    7
 7.075170879939155e-12    6    4    8    8
 2.854318001787184e-11    6    5    1    1
 0.0563804989261389    6    5    2    1
 -2.795812525212351e-11    6    5    2    2
 1.383260182150852e-12    6    5    3    3
 -1.45897547475193e-06    6    5    4    3
 1.920191823123594e-12    6    5    4    4
 0.07713884496447752    6    5    5    3
 1.564644236105544e-11    6    5    5    4
 5.191930315493354e-12    6    5    5    5
 -3.879189968760388e-12    6    5    6    3
 -2.161367805727756e-07    6    5    6    4
 0.0915460945687699    6    5    6    5
 -6.48126982700617e-12    6    5    6    6
 -6.716224127614283e-08    6    5    7    1
 1.443962282265806e-11    6    5    7    2
 3.980576691111937e-11    6    5    7    7
 -1.785415880942862e-12    6    5    8    1
 3.694009455310272e-07    6    5    8    2
 -0.05593570394735335    6    5    8    7
 -3.976659056953936e-11    6    5    8    8
 0.2910795024622915    6    6    1    1
 -9.921499333096762e-13    6    6    2    1
 0.3041024944635843    6    6    2    2
 0.3025207161233895    6    6    3    3
 4.131130442071307e-12    6    6    4    3
 0.2950560427987903    6    6    4    4
 -5.143054069026322e-12    6    6    5    3
 -1.192009543052154e-07    6    6    5    4
 0.3045900003936447    6    6    5    5
 0.005940627835351056    6    6    6    3
 -9.065101100325101e-13    6    6    6    4
 -6.481279366134885e-12    6    6    6    5
 0.2981989054764501    6    6    6    6
 6.18198083732696e-12    6    6    7    1
 4.049721986083428e-09    6    6    7    2
 0.1992781540683977    6    6    7    7
 7.893859118784457e-08    6    6    8    1
 -7.193652845714077e-12    6    6    8    2
 1.680590004181688e-12    6    6    8    7
 0.2056723919230797    6    6    8    8
 4.197457316438752e-12    7    1    1    1
 5.807667651336478e-09    7    1    2    1
 1.079940674850156e-11    7    1    2    2
 -1.93296983982765e-12    7    1    3    3
 0.01031685707385912    7    1    4    3
 -1.379723931133926e-12    7    1    4    4
 1.111122720586916e-07    7    1    5    3
 -8.816563177432091e-13    7    1    5    4
 1.196725449338231e-11    7    1    5    5
 9.232384117190823e-12    7    1    6    3
 -0.009601550366758532    7    1    6    4
 -6.716224128254047e-08    7    1    6    5
 6.181937665765413e-12    7    1    6    6
 0.005089016438610618    7    1    7    1
 2.539665623163603e-12    7    1    7    2
 4.643569691255675e-12    7    1    7    7
 -9.298203022733249e-13    7    1    8    1
 -0.005207365799356408    7    1    8    2
 -4.754010389305669e-08    7    1    8    7
 4.753423827106142e-12    7    1    8    8
 2.007338755819158e-08    7    2    1    1
 1.089579299765749e-11    7    2    2    1
 5.714889231192382e-09    7    2    2    2
 9.272617438738559e-09    7    2    3    3
 6.384330251971144e-12    7    2    4    3
 3.806470119597104e-08    7    2    4    4
 1.215994072066232e-11    7    2    5    3
 -0.001247073318387204    7    2    5    4
 -2.517741061532794e-08    7    2    5    5
 -7.55453674120208e-09    7    2    6    3
 -5.323434432179955e-12    7    2    6    4
 1.44396344744386e-11    7    2    6    5
 4.04972198658638e-09    7    2    6    6
 2.53966728110224e-12    7    2    7    1
 0.004538980972493162    7    2    7    2
 -9.751271832014622e-09    7    2    7    7
 -0.002344957413899177    7    2    8    1
 -9.326572866091699e-13    7    2    8    2
 -6.292926001451381e-12    7    2    8    7
 -2.078148917449533e-08    7    2    8    8
 -1.961291019459536e-12    7    3    3    1
 6.395942202451151e-10    7    3    3    2
 0.00155221841044115    7    3    4    1
 2.084294194915915e-13    7    3    4    2
 1.651505399305594e-08    7    3    5    1
 -4.357088299825621e-14    7    3    5    2
 1.318556511107996e-12    7    3    6    1
 1.1821835120126e-09    7    3    6    2
 0.003718341590158747    7    3    7    3
 -3.390459920059102e-12    7    3    7    4
 2.671602818093985e-12    7    3    7    5
 0.001988959738465722    7    3    7    6
 2.082736812947875e-13    7    3    8    3
 1.742802586588779e-08    7    3    8    4
 -0.003646218170479669    7    3    8    5
 1.745753487862199e-13    7    3    8    6
 0.002286304839119361    7    4    3    1
 4.513168812747938e-13    7    4    3    2
 -2.155798772826967e-12    7    4    4    1
 9.671574933668379e-09    7    4    4    2
 4.088380175467488e-13    7    4    5    1
 0.0008796009886263664    7    4    5    2
 -0.0008201798697645256    7    4    6    1
 -4.171937807712827e-13    7    4    6    2
 -3.390461357050497e-12    7    4    7    3
 0.002243090933591678    7    4    7    4
 -4.647910316930772e-08    7    4    7    5
 3.391956057223727e-12    7    4    7    6
 1.847271265327635e-08    7    4    8    3
 -1.229668993658486e-14    7    4    8    4
 -4.270194986059446e-13    7    4    8    5
 6.379351397863961e-08    7    4    8    6
 2.98492071010559e-08    7    5    3    1
 5.615039005853868e-13    7    5    3    2
 -1.025326595712466e-12    7    5    4    1
 -0.001866134573339485    7    5    4    2
 1.312682671597344e-12    7    5    5    1
 -6.891366427749938e-09    7    5    5    2
 -1.827324224263414e-09    7    5    6    1
 8.411031558347696e-13    7    5    6    2
 2.67159600855552e-12    7    5    7    3
 -4.647910317204024e-08    7    5    7    4
 0.00714458767853064    7    5    7    5
 3.838923563273399e-12    7    5    7    6
 -0.003549336912924555    7    5    8    3
 -7.60647442607464e-13    7    5    8    4
 -6.091418260331977e-14    7    5    8    5
 -0.00550068529902721    7    5    8    6
 2.507106164086e-12    7    6    3    1
 4.133765877461285e-09    7    6    3    2
 -0.003260399910754055    7    6    4    1
 -3.581310938731138e-13    7    6    4    2
 -1.847127354723141e-08    7    6    5    1
 9.392812446027264e-13    7    6    5    2
 3.869531725269066e-13    7    6    6    1
 6.085471598379414e-10    7    6    6    2
 0.001988959738465727    7    6    7    3
 3.391953506172248e-12    7    6    7    4
 3.838915751437671e-12    7    6    7    5
 0.006342211739714847    7    6    7    6
 1.656139617998486e-13    7    6    8    3
 6.301518788973965e-08    7    6    8    4
 -0.005283600252972795    7    6    8    5
 7.127476096932316e-13    7    6    8    6
 1.155807277931566e-15    7    6    8    7
 0.189430944696974    7    7    1    1
 3.017907459658744e-11    7    7    2    1
 0.2063542767793336    7    7    2    2
 0.1925253521184812    7    7    3    3
 -1.427825143274913e-11    7    7    4    3
 0.1777765518355689    7    7    4    4
 3.353331833120891e-11    7    7    5    3
 -3.372110013076165e-07    7    7    5    4
 0.2133883376757439    7    7    5    5
 0.0175852032338839    7    7    6    3
 1.689162503447361e-11    7    7    6    4
 3.980587466321964e-11    7    7    6    5
 0.1992781540683979    7    7    6    6
 4.643446596088644e-12    7    7    7    1
 -9.751271866115165e-09    7    7    7    2
 0.225947414024291    7    7    7    7
 4.312499331186756e-08    7    7    8    1
 4.336377150372314e-12    7    7    8    2
 -7.175436873866288e-11    7    7    8    7
 0.2169592157965327    7    7    8    8
 3.403619280060675e-08    8    1    1    1
 -1.740852873269914e-12    8    1    2    1
 1.149268783614447e-07    8    1    2    2
 4.756539496381885e-08    8    1    3    3
 -2.731417959281166e-12    8    1    4    3
 1.413287108271748e-09    8    1    4    4
 -1.341902440119221e-12    8    1    5    3
 0.0004161388523998032    8    1    5    4
 1.30213707324552e-07    8    1    5    5
 5.44625519762877e-08    8    1    6    3
 2.108420841599352e-12    8    1    6    4
 -1.785412352205194e-12    8    1    6    5
 7.893859123542358e-08    8    1    6    6
 -9.298179226483136e-13    8    1    7    1
 -0.002344957413899174    8    1    7    2
 4.312499329338618e-08    8    1    7    7
 0.002473351940879485    8    1    8    1
 -1.651031693418318e-13    8    1    8    2
 7.419429938184554e-13    8    1    8    7
 5.433734075195791e-08    8    1    8    8
 -1.543166893637365e-11    8    2    1    1
 1.61098198349455e-07    8    2    2    1
 -1.926435474629198e-11    8    2    2    2
 2.508244724115996e-12    8    2    3    3
 -0.02584567070177752    8    2    4    3
 -1.382067081764048e-11    8    2    4    4
 -9.867150166052426e-08    8    2    5    3
 4.931373091281074e-13    8    2    5    4
 -6.094157891045961e-12    8    2    5    5
 -3.041928064691571e-12    8    2    6    3
 0.02232829641309803    8    2    6    4
 3.694009455323843e-07    8    2    6    5
 -7.193678568410619e-12    8    2    6    6
 -0.005207365799356414    8    2    7    1
 -9.326665121154575e-13    8    2    7    2
 4.336397227103498e-12    8    2    7    7
 -1.65107648692831e-13    8    2    8    1
 0.01258939103256203    8    2    8    2
 -1.124923755938179e-07    8    2    8    7
 1.915722659987743e-12    8    2    8    8
 -9.475526186225899e-09    8    3    3    1
 1.069309627348418e-12    8    3    3    2
 8.742543224907722e-14    8    3    4    1
 -0.001916304044369758    8    3    4    2
 2.337757661491185e-13    8    3    5    1
 -1.415488915377229e-08    8    3    5    2
 4.555059259251133e-09    8    3    6    1
 1.708907809098298e-13    8    3    6    2
 2.082683024961618e-13    8    3    7    3
 1.847271265467231e-08    8    3    7    4
 -0.003549336912924562    8    3    7    5
 1.656010456507456e-13    8    3    7    6
 0.003011158489522541    8    3    8    3
 -2.720025412384871e-13    8    3    8    4
 -2.439712628524641e-12    8    3    8    5
 0.001719727200100366    8    3    8    6
 5.222452787221639e-14    8    4    3    1
 -0.003079785916392268    8    4    3    2
 -1.918350084044183e-08    8    4    4    1
 -1.154086310702464e-12    8    4    4    2
 -0.0007043116213148433    8    4    5    1
 5.874929217569746e-13    8    4    5    2
 1.865064023908889e-13    8    4    6    1
 0.00180772228281982    8    4    6    2
 1.742802586276187e-08    8    4    7    3
 -1.229955747453286e-14    8    4    7    4
 -7.606469563337095e-13    8    4    7    5
 6.301518788153805e-08    8    4    7    6
 -2.720036288287914e-13    8    4    8    3
 0.002336768875357557    8    4    8    4
 -3.334674340249106e-08    8    4    8    5
 7.614013738753813e-13    8    4    8    6
 5.539242327982957e-14    8    5    3    1
 -1.715433261958608e-08    8    5    3    2
 0.001219157173685374    8    5    4    1
 -7.888952058708498e-13    8    5    4    2
 1.178319356835619e-08    8    5    5    1
 9.24014054807836e-13    8    5    5    2
 -8.179730754860896e-14    8    5    6    1
 3.0005327411296e-08    8    5    6    2
 -0.003646218170479674    8    5    7    3
 -4.27013151364869e-13    8    5    7    4
 -6.093838611641705e-14    8    5    7    5
 -0.005283600252972819    8    5    7    6
 -2.439713522299277e-12    8    5    8    3
 -3.334674341523526e-08    8    5    8    4
 0.006112288371441963    8    5    8    5
 -3.81325010764701e-12    8    5    8    6
 -1.106649366359692e-15    8    6    1    1
 -1.086116870504988e-15    8    6    2    2
 9.829402752527431e-09    8    6    3    1
 4.713119648959354e-13    8    6    3    2
 -1.218556916513981e-15    8    6    3    3
 -2.796514849592041e-13    8    6    4    1
 0.003698234645455146    8    6    4    2
 -1.246367317243456e-15    8    6    4    4
 4.660989021927457e-14    8    6    5    1
 5.63301096174962e-08    8    6    5    2
 -1.066462326558266e-15    8    6    5    5
 4.874151413214694e-09    8    6    6    1
 1.490973024974003e-13    8    6    6    2
 1.745618267250467e-13    8    6    7    3
 6.379351397740409e-08    8    6    7    4
 -0.005500685299027215    8    6    7    5
 7.127228155927566e-13    8    6    7    6
 0.001719727200100355    8    6    8    3
 7.614088226831194e-13    8    6    8    4
 -3.813250461589516e-12    8    6    8    5
 0.005376360866639534    8    6    8    6
 -2.168012969611962e-11    8    7    1    1
 -0.03631877805425858    8    7    2    1
 1.466467106161299e-11    8    7    2    2
 -3.522041431277017e-12    8    7    3    3
 3.396458950380689e-07    8    7    4    3
 -4.989320329438297e-12    8    7    4    4
 -0.04538703913573195    8    7    5    3
 -8.857529217974212e-12    8    7    5    4
 -4.56722648773838e-12    8    7    5    5
 3.497325794284636e-12    8    7    6    3
 5.818043141872727e-07    8    7    6    4
 -0.05593570394735332    8    7    6    5
 1.680821416031746e-12    8    7    6    6
 -4.754010393166261e-08    8    7    7    1
 -6.293030627292873e-12    8    7    7    2
 1.155807277931587e-15    8    7    7    6
 -7.175400310702369e-11    8    7    7    7
 7.419509837888783e-13    8    7    8    1
 -1.124923756641921e-07    8    7    8    2
 0.1037437508954136    8    7    8    7
 7.483754033533252e-11    8    7    8    8
 0.2001109100701943    8    8    1    1
 -2.200360298413837e-11    8    8    2    1
 0.2153514431293709    8    8    2    2
 0.2005002586700106    8    8    3    3
 -3.875238021103233e-12    8    8    4    3
 0.1918113634030114    8    8    4    4
 -3.149633586948434e-11    8    8    5    3
 -2.120601795452667e-07    8    8    5    4
 0.2143258877853468    8    8    5    5
 0.01112990591617617    8    8    6    3
 7.07494154407462e-12    8    8    6    4
 -3.976667016504033e-11    8    8    6    5
 0.2056723919230798    8    8    6    6
 4.753415283303594e-12    8    8    7    1
 -2.078148916595398e-08    8    8    7    2
 0.2169592157965325    8    8    7    7
 5.43373407459003e-08    8    8    8    1
 1.915672400440785e-12    8    8    8    2
 7.4838281935205e-11    8    8    8    7
 0.2128941205194348    8    8    8    8
 -2.655599088770646    1    1  0  0
 5.176891782060257e-12    2    1  0  0
 -2.651089991550845    2    2  0  0
 -2.504965767052078    3    3  0  0
 1.087741071755544e-15    4    1  0  0
 -1.459585352621535e-10    4    3  0  0
 -2.366968836950007    4    4  0  0
 1.359894412054449e-15    5    1  0  0
 1.39056293206542e-15    5    2  0  0
 5.475946912767402e-12    5    3  0  0
 -1.151001717459807e-06    5    4  0  0
 -2.207467075445595    5    5  0  0
 2.839670262703361e-15    6    1  0  0
 2.062106649269176e-15    6    2  0  0
 0.04177843819377116    6    3  0  0
 1.115873685591483e-10    6    4  0  0
 5.001430588800693e-12    6    5  0  0
 -2.090772398506918    6    6  0  0
 -1.644257279701117e-11    7    1  0  0
 -1.260288502894108e-07    7    2  0  0
 1.122126738326456e-15    7    6  0  0
 -1.333259173523121    7    7  0  0
 -2.24817619568597e-07    8    1  0  0
 8.155583945123357e-11    8    2  0  0
 -2.250477278109982e-15    8    5  0  0
 8.347897721580594e-15    8    6  0  0
 2.324164875064159e-11    8    7  0  0
 -1.401980393234044    8    8  0  0
 -141.6974170130371  0  0  0  0
